/*--------------------------------*- C++ -*----------------------------------*\
| =========                 |                                                 |
| \\      /  F ield         | OpenFOAM: The Open Source CFD Toolbox           |
|  \\    /   O peration     | Version:  v1906                                 |
|   \\  /    A nd           | Web:      www.OpenFOAM.com                      |
|    \\/     M anipulation  |                                                 |
\*---------------------------------------------------------------------------*/
FoamFile
{
    version     2.0;
    format      ascii;
    class       volVectorField;
    location    "1";
    object      B;
}
// * * * * * * * * * * * * * * * * * * * * * * * * * * * * * * * * * * * * * //

dimensions      [1 0 -2 0 0 -1 0];


internalField   nonuniform List<vector> 
4000
(
(0.451457 20.0139 0)
(0.513419 19.9908 0)
(0.48019 19.9928 0)
(0.501477 19.9962 0)
(0.488812 19.9973 0)
(0.496872 19.9987 0)
(0.491836 19.9991 0)
(0.494934 19.9996 0)
(0.492908 19.9997 0)
(0.494097 19.9999 0)
(0.493283 19.9999 0)
(0.493743 20 0)
(0.493419 20 0)
(0.493598 20 0)
(0.493471 20 0)
(0.493542 20 0)
(0.493492 20 0)
(0.49352 20 0)
(0.4935 20 0)
(0.493511 20 0)
(0.493504 20 0)
(0.493508 20 0)
(0.493505 20 0)
(0.493507 20 0)
(0.493506 20 0)
(0.493507 20 0)
(0.493506 20 0)
(0.493506 20 0)
(0.493506 20 0)
(0.493506 20 0)
(0.493506 20 0)
(0.493506 20 0)
(0.493506 20 0)
(0.493506 20 0)
(0.493506 20 0)
(0.493506 20 0)
(0.493506 20 0)
(0.493506 20 0)
(0.493506 20 0)
(0.493506 20 0)
(0.493506 20 0)
(0.493506 20 0)
(0.493506 20 0)
(0.493506 20 0)
(0.493506 20 0)
(0.493506 20 0)
(0.493506 20 0)
(0.493506 20 0)
(0.493506 20 0)
(0.493507 20 0)
(0.493507 20 0)
(0.493507 20 0)
(0.493507 20 0)
(0.493507 20 0)
(0.493507 20 0)
(0.493507 20 0)
(0.493507 20 0)
(0.493507 20 0)
(0.493507 20 0)
(0.493507 20 0)
(0.493507 20 0)
(0.493507 20 0)
(0.493507 20 0)
(0.493507 20 0)
(0.493507 20 0)
(0.493507 20 0)
(0.493507 20 0)
(0.493507 20 0)
(0.493507 20 0)
(0.493507 20 0)
(0.493507 20 0)
(0.493507 20 0)
(0.493507 20 0)
(0.493507 20 0)
(0.493507 20 0)
(0.493507 20 0)
(0.493507 20 0)
(0.493507 20 0)
(0.493507 20 0)
(0.493507 20 0)
(0.493507 20 0)
(0.493507 20 0)
(0.493507 20 0)
(0.493507 20 0)
(0.493507 20 0)
(0.493507 20 0)
(0.493507 20 0)
(0.493507 20 0)
(0.493506 20 0)
(0.493507 20 0)
(0.493506 20 0)
(0.493506 20 0)
(0.493506 20 0)
(0.493506 20 0)
(0.493505 20 0)
(0.493505 20 0)
(0.49351 20 0)
(0.493514 20 0)
(0.493599 20 0)
(0.493273 20.0002 0)
(0.709983 19.9918 0)
(0.808921 19.9718 0)
(0.763663 19.9799 0)
(0.797605 19.9894 0)
(0.779088 19.9931 0)
(0.792079 19.9971 0)
(0.784716 19.9984 0)
(0.789722 19.9999 0)
(0.786751 20.0003 0)
(0.788668 20.0008 0)
(0.787468 20.001 0)
(0.788205 20.0011 0)
(0.787723 20.0011 0)
(0.788009 20.0012 0)
(0.787818 20.0012 0)
(0.78793 20.0012 0)
(0.787854 20.0012 0)
(0.787898 20.0012 0)
(0.787869 20.0012 0)
(0.787886 20.0012 0)
(0.787875 20.0012 0)
(0.787881 20.0012 0)
(0.787877 20.0012 0)
(0.78788 20.0012 0)
(0.787878 20.0012 0)
(0.787879 20.0012 0)
(0.787878 20.0012 0)
(0.787879 20.0012 0)
(0.787879 20.0012 0)
(0.787879 20.0012 0)
(0.787879 20.0012 0)
(0.787879 20.0012 0)
(0.787879 20.0012 0)
(0.787879 20.0012 0)
(0.787879 20.0012 0)
(0.787879 20.0012 0)
(0.787879 20.0012 0)
(0.787879 20.0012 0)
(0.787879 20.0012 0)
(0.787879 20.0012 0)
(0.787879 20.0012 0)
(0.787879 20.0012 0)
(0.787879 20.0012 0)
(0.787879 20.0012 0)
(0.787879 20.0012 0)
(0.787879 20.0012 0)
(0.787879 20.0012 0)
(0.787879 20.0012 0)
(0.787879 20.0012 0)
(0.787879 20.0012 0)
(0.787879 20.0012 0)
(0.787879 20.0012 0)
(0.787879 20.0012 0)
(0.787879 20.0012 0)
(0.787879 20.0012 0)
(0.787879 20.0012 0)
(0.787879 20.0012 0)
(0.787879 20.0012 0)
(0.787879 20.0012 0)
(0.787879 20.0012 0)
(0.787879 20.0012 0)
(0.787879 20.0012 0)
(0.787879 20.0012 0)
(0.787879 20.0012 0)
(0.787879 20.0012 0)
(0.787879 20.0012 0)
(0.787879 20.0012 0)
(0.787879 20.0012 0)
(0.787879 20.0012 0)
(0.787879 20.0012 0)
(0.787879 20.0012 0)
(0.787879 20.0012 0)
(0.787879 20.0012 0)
(0.787879 20.0012 0)
(0.787879 20.0012 0)
(0.787879 20.0012 0)
(0.787879 20.0012 0)
(0.787879 20.0012 0)
(0.787879 20.0012 0)
(0.787879 20.0012 0)
(0.787879 20.0012 0)
(0.787879 20.0012 0)
(0.787879 20.0012 0)
(0.787879 20.0012 0)
(0.787879 20.0012 0)
(0.787879 20.0012 0)
(0.787879 20.0012 0)
(0.787879 20.0012 0)
(0.787879 20.0012 0)
(0.787879 20.0012 0)
(0.787879 20.0012 0)
(0.787879 20.0012 0)
(0.787879 20.0012 0)
(0.78788 20.0012 0)
(0.787881 20.0012 0)
(0.787888 20.0012 0)
(0.787906 20.0012 0)
(0.787953 20.0011 0)
(0.788156 20.0013 0)
(0.787896 20.0018 0)
(0.759105 19.9454 0)
(0.86368 19.9497 0)
(0.821577 19.9661 0)
(0.858747 19.981 0)
(0.840294 19.9879 0)
(0.854681 19.9941 0)
(0.847343 19.9966 0)
(0.852905 19.9989 0)
(0.849936 19.9997 0)
(0.852063 20.0005 0)
(0.850856 20.0007 0)
(0.85167 20.001 0)
(0.851181 20.001 0)
(0.851494 20.0011 0)
(0.851299 20.0011 0)
(0.85142 20.0011 0)
(0.851343 20.0011 0)
(0.85139 20.0011 0)
(0.85136 20.0011 0)
(0.851378 20.0011 0)
(0.851366 20.0011 0)
(0.851374 20.0011 0)
(0.851369 20.0011 0)
(0.851372 20.0011 0)
(0.85137 20.0011 0)
(0.851371 20.0011 0)
(0.85137 20.0011 0)
(0.851371 20.0011 0)
(0.851371 20.0011 0)
(0.851371 20.0011 0)
(0.851371 20.0011 0)
(0.851371 20.0011 0)
(0.851371 20.0011 0)
(0.851371 20.0011 0)
(0.851371 20.0011 0)
(0.851371 20.0011 0)
(0.851371 20.0011 0)
(0.851371 20.0011 0)
(0.851371 20.0011 0)
(0.851371 20.0011 0)
(0.851371 20.0011 0)
(0.851371 20.0011 0)
(0.851371 20.0011 0)
(0.851371 20.0011 0)
(0.851371 20.0011 0)
(0.851371 20.0011 0)
(0.851371 20.0011 0)
(0.851371 20.0011 0)
(0.851371 20.0011 0)
(0.851371 20.0011 0)
(0.851371 20.0011 0)
(0.851371 20.0011 0)
(0.851371 20.0011 0)
(0.851371 20.0011 0)
(0.851371 20.0011 0)
(0.851371 20.0011 0)
(0.851371 20.0011 0)
(0.851371 20.0011 0)
(0.851371 20.0011 0)
(0.851371 20.0011 0)
(0.851371 20.0011 0)
(0.851371 20.0011 0)
(0.851371 20.0011 0)
(0.851371 20.0011 0)
(0.851371 20.0011 0)
(0.851371 20.0011 0)
(0.851371 20.0011 0)
(0.851371 20.0011 0)
(0.851371 20.0011 0)
(0.851371 20.0011 0)
(0.851371 20.0011 0)
(0.851371 20.0011 0)
(0.851371 20.0011 0)
(0.851371 20.0011 0)
(0.851371 20.0011 0)
(0.851371 20.0011 0)
(0.851371 20.0011 0)
(0.851371 20.0011 0)
(0.851371 20.0011 0)
(0.851371 20.0011 0)
(0.851371 20.0011 0)
(0.851371 20.0011 0)
(0.851371 20.0011 0)
(0.851371 20.0011 0)
(0.851371 20.0011 0)
(0.851371 20.0011 0)
(0.851371 20.0011 0)
(0.851371 20.0011 0)
(0.851371 20.0011 0)
(0.851371 20.0011 0)
(0.851371 20.0011 0)
(0.851371 20.0011 0)
(0.851372 20.0011 0)
(0.851374 20.0011 0)
(0.851378 20.0011 0)
(0.851393 20.0011 0)
(0.851427 20.0011 0)
(0.85153 20.001 0)
(0.851857 20.0013 0)
(0.852287 20.002 0)
(0.740526 19.8968 0)
(0.840263 19.9265 0)
(0.80467 19.9523 0)
(0.842006 19.9722 0)
(0.825299 19.9825 0)
(0.839924 19.9907 0)
(0.833278 19.9944 0)
(0.838952 19.9975 0)
(0.836253 19.9988 0)
(0.838423 19.9998 0)
(0.837317 20.0002 0)
(0.838143 20.0006 0)
(0.837692 20.0007 0)
(0.838007 20.0007 0)
(0.837825 20.0008 0)
(0.837946 20.0008 0)
(0.837873 20.0008 0)
(0.83792 20.0008 0)
(0.837891 20.0008 0)
(0.83791 20.0008 0)
(0.837898 20.0008 0)
(0.837905 20.0008 0)
(0.837901 20.0008 0)
(0.837904 20.0008 0)
(0.837902 20.0008 0)
(0.837903 20.0008 0)
(0.837902 20.0008 0)
(0.837903 20.0008 0)
(0.837903 20.0008 0)
(0.837903 20.0008 0)
(0.837903 20.0008 0)
(0.837903 20.0008 0)
(0.837903 20.0008 0)
(0.837903 20.0008 0)
(0.837903 20.0008 0)
(0.837903 20.0008 0)
(0.837903 20.0008 0)
(0.837903 20.0008 0)
(0.837903 20.0008 0)
(0.837903 20.0008 0)
(0.837903 20.0008 0)
(0.837903 20.0008 0)
(0.837903 20.0008 0)
(0.837903 20.0008 0)
(0.837903 20.0008 0)
(0.837903 20.0008 0)
(0.837903 20.0008 0)
(0.837903 20.0008 0)
(0.837903 20.0008 0)
(0.837903 20.0008 0)
(0.837903 20.0008 0)
(0.837903 20.0008 0)
(0.837903 20.0008 0)
(0.837903 20.0008 0)
(0.837903 20.0008 0)
(0.837903 20.0008 0)
(0.837903 20.0008 0)
(0.837903 20.0008 0)
(0.837903 20.0008 0)
(0.837903 20.0008 0)
(0.837903 20.0008 0)
(0.837903 20.0008 0)
(0.837903 20.0008 0)
(0.837903 20.0008 0)
(0.837903 20.0008 0)
(0.837903 20.0008 0)
(0.837903 20.0008 0)
(0.837903 20.0008 0)
(0.837903 20.0008 0)
(0.837903 20.0008 0)
(0.837903 20.0008 0)
(0.837903 20.0008 0)
(0.837903 20.0008 0)
(0.837903 20.0008 0)
(0.837903 20.0008 0)
(0.837903 20.0008 0)
(0.837903 20.0008 0)
(0.837903 20.0008 0)
(0.837903 20.0008 0)
(0.837903 20.0008 0)
(0.837903 20.0008 0)
(0.837903 20.0008 0)
(0.837903 20.0008 0)
(0.837903 20.0008 0)
(0.837903 20.0008 0)
(0.837903 20.0008 0)
(0.837903 20.0008 0)
(0.837903 20.0008 0)
(0.837903 20.0008 0)
(0.837903 20.0008 0)
(0.837903 20.0008 0)
(0.837904 20.0008 0)
(0.837905 20.0008 0)
(0.837909 20.0008 0)
(0.837915 20.0008 0)
(0.837938 20.0008 0)
(0.837988 20.0007 0)
(0.838154 20.0006 0)
(0.838613 20.0009 0)
(0.84001 20.0017 0)
(0.700561 19.8522 0)
(0.792326 19.9036 0)
(0.763271 19.9388 0)
(0.799695 19.9636 0)
(0.785093 19.9773 0)
(0.799536 19.9874 0)
(0.793721 19.9925 0)
(0.799344 19.9963 0)
(0.796974 19.9981 0)
(0.799123 19.9994 0)
(0.798144 19.9999 0)
(0.798959 20.0003 0)
(0.798555 20.0005 0)
(0.798865 20.0006 0)
(0.798699 20.0006 0)
(0.798818 20.0007 0)
(0.798751 20.0007 0)
(0.798797 20.0007 0)
(0.79877 20.0007 0)
(0.798788 20.0007 0)
(0.798777 20.0007 0)
(0.798784 20.0007 0)
(0.79878 20.0007 0)
(0.798782 20.0007 0)
(0.798781 20.0007 0)
(0.798782 20.0007 0)
(0.798781 20.0007 0)
(0.798781 20.0007 0)
(0.798781 20.0007 0)
(0.798781 20.0007 0)
(0.798781 20.0007 0)
(0.798781 20.0007 0)
(0.798781 20.0007 0)
(0.798781 20.0007 0)
(0.798781 20.0007 0)
(0.798781 20.0007 0)
(0.798781 20.0007 0)
(0.798781 20.0007 0)
(0.798781 20.0007 0)
(0.798781 20.0007 0)
(0.798781 20.0007 0)
(0.798781 20.0007 0)
(0.798781 20.0007 0)
(0.798781 20.0007 0)
(0.798781 20.0007 0)
(0.798781 20.0007 0)
(0.798781 20.0007 0)
(0.798781 20.0007 0)
(0.798781 20.0007 0)
(0.798781 20.0007 0)
(0.798781 20.0007 0)
(0.798781 20.0007 0)
(0.798781 20.0007 0)
(0.798781 20.0007 0)
(0.798781 20.0007 0)
(0.798781 20.0007 0)
(0.798781 20.0007 0)
(0.798781 20.0007 0)
(0.798781 20.0007 0)
(0.798781 20.0007 0)
(0.798781 20.0007 0)
(0.798781 20.0007 0)
(0.798781 20.0007 0)
(0.798781 20.0007 0)
(0.798781 20.0007 0)
(0.798781 20.0007 0)
(0.798781 20.0007 0)
(0.798781 20.0007 0)
(0.798781 20.0007 0)
(0.798781 20.0007 0)
(0.798781 20.0007 0)
(0.798781 20.0007 0)
(0.798781 20.0007 0)
(0.798781 20.0007 0)
(0.798781 20.0007 0)
(0.798781 20.0007 0)
(0.798781 20.0007 0)
(0.798781 20.0007 0)
(0.798781 20.0007 0)
(0.798781 20.0007 0)
(0.798781 20.0007 0)
(0.798781 20.0007 0)
(0.798781 20.0007 0)
(0.798781 20.0007 0)
(0.798781 20.0007 0)
(0.798781 20.0007 0)
(0.798781 20.0007 0)
(0.798781 20.0007 0)
(0.798781 20.0007 0)
(0.798782 20.0007 0)
(0.798782 20.0007 0)
(0.798783 20.0007 0)
(0.798784 20.0007 0)
(0.79879 20.0007 0)
(0.798799 20.0006 0)
(0.798829 20.0006 0)
(0.798893 20.0005 0)
(0.799123 20.0004 0)
(0.799714 20.0007 0)
(0.802069 20.0015 0)
(0.654338 19.8118 0)
(0.737512 19.8813 0)
(0.714174 19.9258 0)
(0.749224 19.9552 0)
(0.736676 19.9725 0)
(0.750746 19.9843 0)
(0.745742 19.9908 0)
(0.751238 19.9952 0)
(0.749189 19.9975 0)
(0.751289 19.999 0)
(0.750435 19.9997 0)
(0.751228 20.0002 0)
(0.750872 20.0004 0)
(0.751172 20.0005 0)
(0.751024 20.0006 0)
(0.751138 20.0006 0)
(0.751078 20.0006 0)
(0.751122 20.0006 0)
(0.751097 20.0006 0)
(0.751114 20.0006 0)
(0.751105 20.0006 0)
(0.751111 20.0006 0)
(0.751107 20.0006 0)
(0.75111 20.0006 0)
(0.751108 20.0006 0)
(0.751109 20.0006 0)
(0.751109 20.0006 0)
(0.751109 20.0006 0)
(0.751109 20.0006 0)
(0.751109 20.0006 0)
(0.751109 20.0006 0)
(0.751109 20.0006 0)
(0.751109 20.0006 0)
(0.751109 20.0006 0)
(0.751109 20.0006 0)
(0.751109 20.0006 0)
(0.751109 20.0006 0)
(0.751109 20.0006 0)
(0.751109 20.0006 0)
(0.751109 20.0006 0)
(0.751109 20.0006 0)
(0.751109 20.0006 0)
(0.751109 20.0006 0)
(0.751109 20.0006 0)
(0.751109 20.0006 0)
(0.751109 20.0006 0)
(0.751109 20.0006 0)
(0.751109 20.0006 0)
(0.751109 20.0006 0)
(0.751109 20.0006 0)
(0.751109 20.0006 0)
(0.751109 20.0006 0)
(0.751109 20.0006 0)
(0.751109 20.0006 0)
(0.751109 20.0006 0)
(0.751109 20.0006 0)
(0.751109 20.0006 0)
(0.751109 20.0006 0)
(0.751109 20.0006 0)
(0.751109 20.0006 0)
(0.751109 20.0006 0)
(0.751109 20.0006 0)
(0.751109 20.0006 0)
(0.751109 20.0006 0)
(0.751109 20.0006 0)
(0.751109 20.0006 0)
(0.751109 20.0006 0)
(0.751109 20.0006 0)
(0.751109 20.0006 0)
(0.751109 20.0006 0)
(0.751109 20.0006 0)
(0.751109 20.0006 0)
(0.751109 20.0006 0)
(0.751109 20.0006 0)
(0.751109 20.0006 0)
(0.751109 20.0006 0)
(0.751109 20.0006 0)
(0.751109 20.0006 0)
(0.751109 20.0006 0)
(0.751109 20.0006 0)
(0.751109 20.0006 0)
(0.751109 20.0006 0)
(0.751109 20.0006 0)
(0.751109 20.0006 0)
(0.751109 20.0006 0)
(0.751109 20.0006 0)
(0.751109 20.0006 0)
(0.751109 20.0006 0)
(0.751109 20.0006 0)
(0.751109 20.0006 0)
(0.751109 20.0006 0)
(0.751111 20.0006 0)
(0.751113 20.0006 0)
(0.751119 20.0006 0)
(0.751131 20.0006 0)
(0.751168 20.0006 0)
(0.751245 20.0005 0)
(0.751534 20.0003 0)
(0.752248 20.0005 0)
(0.755421 20.0011 0)
(0.606744 19.7753 0)
(0.681541 19.8599 0)
(0.66297 19.9132 0)
(0.696379 19.947 0)
(0.685712 19.9677 0)
(0.699288 19.9812 0)
(0.695027 19.9891 0)
(0.700348 19.9941 0)
(0.698595 19.9969 0)
(0.700626 19.9986 0)
(0.699888 19.9995 0)
(0.700655 20.0001 0)
(0.700342 20.0003 0)
(0.700631 20.0005 0)
(0.7005 20.0006 0)
(0.700609 20.0006 0)
(0.700555 20.0006 0)
(0.700597 20.0006 0)
(0.700575 20.0006 0)
(0.700591 20.0006 0)
(0.700582 20.0006 0)
(0.700588 20.0006 0)
(0.700584 20.0006 0)
(0.700587 20.0006 0)
(0.700585 20.0006 0)
(0.700586 20.0006 0)
(0.700586 20.0006 0)
(0.700586 20.0006 0)
(0.700586 20.0006 0)
(0.700586 20.0006 0)
(0.700586 20.0006 0)
(0.700586 20.0006 0)
(0.700586 20.0006 0)
(0.700586 20.0006 0)
(0.700586 20.0006 0)
(0.700586 20.0006 0)
(0.700586 20.0006 0)
(0.700586 20.0006 0)
(0.700586 20.0006 0)
(0.700586 20.0006 0)
(0.700586 20.0006 0)
(0.700586 20.0006 0)
(0.700586 20.0006 0)
(0.700586 20.0006 0)
(0.700586 20.0006 0)
(0.700586 20.0006 0)
(0.700586 20.0006 0)
(0.700586 20.0006 0)
(0.700586 20.0006 0)
(0.700586 20.0006 0)
(0.700586 20.0006 0)
(0.700586 20.0006 0)
(0.700586 20.0006 0)
(0.700586 20.0006 0)
(0.700586 20.0006 0)
(0.700586 20.0006 0)
(0.700586 20.0006 0)
(0.700586 20.0006 0)
(0.700586 20.0006 0)
(0.700586 20.0006 0)
(0.700586 20.0006 0)
(0.700586 20.0006 0)
(0.700586 20.0006 0)
(0.700586 20.0006 0)
(0.700586 20.0006 0)
(0.700586 20.0006 0)
(0.700586 20.0006 0)
(0.700586 20.0006 0)
(0.700586 20.0006 0)
(0.700586 20.0006 0)
(0.700586 20.0006 0)
(0.700586 20.0006 0)
(0.700586 20.0006 0)
(0.700586 20.0006 0)
(0.700586 20.0006 0)
(0.700586 20.0006 0)
(0.700586 20.0006 0)
(0.700586 20.0006 0)
(0.700586 20.0006 0)
(0.700586 20.0006 0)
(0.700586 20.0006 0)
(0.700586 20.0006 0)
(0.700586 20.0006 0)
(0.700586 20.0006 0)
(0.700586 20.0006 0)
(0.700586 20.0006 0)
(0.700586 20.0006 0)
(0.700586 20.0006 0)
(0.700586 20.0006 0)
(0.700586 20.0006 0)
(0.700587 20.0006 0)
(0.700588 20.0006 0)
(0.70059 20.0006 0)
(0.700598 20.0006 0)
(0.700611 20.0006 0)
(0.700654 20.0005 0)
(0.700742 20.0004 0)
(0.701085 20.0002 0)
(0.701904 20.0003 0)
(0.705718 20.0007 0)
(0.559287 19.7424 0)
(0.626178 19.8395 0)
(0.611502 19.9011 0)
(0.643072 19.9391 0)
(0.634085 19.9632 0)
(0.647069 19.9783 0)
(0.643473 19.9874 0)
(0.648577 19.993 0)
(0.647089 19.9963 0)
(0.649038 19.9983 0)
(0.648404 19.9993 0)
(0.649138 19.9999 0)
(0.648867 20.0003 0)
(0.649142 20.0004 0)
(0.649027 20.0005 0)
(0.649131 20.0006 0)
(0.649083 20.0006 0)
(0.649122 20.0006 0)
(0.649102 20.0006 0)
(0.649117 20.0006 0)
(0.649109 20.0006 0)
(0.649115 20.0006 0)
(0.649111 20.0006 0)
(0.649114 20.0006 0)
(0.649112 20.0006 0)
(0.649113 20.0006 0)
(0.649113 20.0006 0)
(0.649113 20.0006 0)
(0.649113 20.0006 0)
(0.649113 20.0006 0)
(0.649113 20.0006 0)
(0.649113 20.0006 0)
(0.649113 20.0006 0)
(0.649113 20.0006 0)
(0.649113 20.0006 0)
(0.649113 20.0006 0)
(0.649113 20.0006 0)
(0.649113 20.0006 0)
(0.649113 20.0006 0)
(0.649113 20.0006 0)
(0.649113 20.0006 0)
(0.649113 20.0006 0)
(0.649113 20.0006 0)
(0.649113 20.0006 0)
(0.649113 20.0006 0)
(0.649113 20.0006 0)
(0.649113 20.0006 0)
(0.649113 20.0006 0)
(0.649113 20.0006 0)
(0.649113 20.0006 0)
(0.649113 20.0006 0)
(0.649113 20.0006 0)
(0.649113 20.0006 0)
(0.649113 20.0006 0)
(0.649113 20.0006 0)
(0.649113 20.0006 0)
(0.649113 20.0006 0)
(0.649113 20.0006 0)
(0.649113 20.0006 0)
(0.649113 20.0006 0)
(0.649113 20.0006 0)
(0.649113 20.0006 0)
(0.649113 20.0006 0)
(0.649113 20.0006 0)
(0.649113 20.0006 0)
(0.649113 20.0006 0)
(0.649113 20.0006 0)
(0.649113 20.0006 0)
(0.649113 20.0006 0)
(0.649113 20.0006 0)
(0.649113 20.0006 0)
(0.649113 20.0006 0)
(0.649113 20.0006 0)
(0.649113 20.0006 0)
(0.649113 20.0006 0)
(0.649113 20.0006 0)
(0.649113 20.0006 0)
(0.649113 20.0006 0)
(0.649113 20.0006 0)
(0.649113 20.0006 0)
(0.649113 20.0006 0)
(0.649113 20.0006 0)
(0.649113 20.0006 0)
(0.649113 20.0006 0)
(0.649113 20.0006 0)
(0.649113 20.0006 0)
(0.649113 20.0006 0)
(0.649113 20.0006 0)
(0.649113 20.0006 0)
(0.649114 20.0006 0)
(0.649114 20.0006 0)
(0.649116 20.0006 0)
(0.649118 20.0006 0)
(0.649126 20.0006 0)
(0.649141 20.0006 0)
(0.649188 20.0005 0)
(0.649285 20.0004 0)
(0.649674 20.0001 0)
(0.650575 20 0)
(0.654847 20.0001 0)
(0.51237 19.7128 0)
(0.571881 19.8203 0)
(0.560356 19.8896 0)
(0.58992 19.9316 0)
(0.582413 19.9589 0)
(0.594715 19.9754 0)
(0.591707 19.9858 0)
(0.596557 19.992 0)
(0.595304 19.9958 0)
(0.597156 19.9979 0)
(0.596616 19.9991 0)
(0.597313 19.9998 0)
(0.597079 20.0002 0)
(0.597339 20.0004 0)
(0.597238 20.0005 0)
(0.597336 20.0006 0)
(0.597293 20.0006 0)
(0.59733 20.0006 0)
(0.597313 20.0006 0)
(0.597327 20.0006 0)
(0.597319 20.0006 0)
(0.597325 20.0006 0)
(0.597322 20.0006 0)
(0.597324 20.0006 0)
(0.597323 20.0006 0)
(0.597324 20.0006 0)
(0.597323 20.0006 0)
(0.597323 20.0006 0)
(0.597323 20.0006 0)
(0.597323 20.0006 0)
(0.597323 20.0006 0)
(0.597323 20.0006 0)
(0.597323 20.0006 0)
(0.597323 20.0006 0)
(0.597323 20.0006 0)
(0.597323 20.0006 0)
(0.597323 20.0006 0)
(0.597323 20.0006 0)
(0.597323 20.0006 0)
(0.597323 20.0006 0)
(0.597323 20.0006 0)
(0.597323 20.0006 0)
(0.597323 20.0006 0)
(0.597323 20.0006 0)
(0.597323 20.0006 0)
(0.597323 20.0006 0)
(0.597323 20.0006 0)
(0.597323 20.0006 0)
(0.597323 20.0006 0)
(0.597323 20.0006 0)
(0.597323 20.0006 0)
(0.597323 20.0006 0)
(0.597323 20.0006 0)
(0.597323 20.0006 0)
(0.597323 20.0006 0)
(0.597323 20.0006 0)
(0.597323 20.0006 0)
(0.597323 20.0006 0)
(0.597323 20.0006 0)
(0.597323 20.0006 0)
(0.597323 20.0006 0)
(0.597323 20.0006 0)
(0.597323 20.0006 0)
(0.597323 20.0006 0)
(0.597323 20.0006 0)
(0.597323 20.0006 0)
(0.597323 20.0006 0)
(0.597323 20.0006 0)
(0.597323 20.0006 0)
(0.597323 20.0006 0)
(0.597323 20.0006 0)
(0.597323 20.0006 0)
(0.597323 20.0006 0)
(0.597323 20.0006 0)
(0.597323 20.0006 0)
(0.597323 20.0006 0)
(0.597323 20.0006 0)
(0.597323 20.0006 0)
(0.597323 20.0006 0)
(0.597323 20.0006 0)
(0.597323 20.0006 0)
(0.597323 20.0006 0)
(0.597323 20.0006 0)
(0.597323 20.0006 0)
(0.597323 20.0006 0)
(0.597323 20.0006 0)
(0.597323 20.0006 0)
(0.597323 20.0006 0)
(0.597324 20.0006 0)
(0.597324 20.0006 0)
(0.597324 20.0006 0)
(0.597326 20.0006 0)
(0.597329 20.0006 0)
(0.597337 20.0006 0)
(0.597353 20.0006 0)
(0.597403 20.0005 0)
(0.597506 20.0003 0)
(0.59793 20 0)
(0.59889 19.9997 0)
(0.603447 19.9994 0)
(0.466046 19.6865 0)
(0.518687 19.8024 0)
(0.509697 19.8788 0)
(0.537109 19.9244 0)
(0.530893 19.9548 0)
(0.542428 19.9727 0)
(0.539935 19.9843 0)
(0.544496 19.991 0)
(0.54345 19.9952 0)
(0.545191 19.9975 0)
(0.544735 19.999 0)
(0.545389 19.9997 0)
(0.545189 20.0001 0)
(0.545433 20.0004 0)
(0.545345 20.0005 0)
(0.545436 20.0005 0)
(0.545399 20.0006 0)
(0.545433 20.0006 0)
(0.545418 20.0006 0)
(0.545431 20.0006 0)
(0.545424 20.0006 0)
(0.545429 20.0006 0)
(0.545427 20.0006 0)
(0.545429 20.0006 0)
(0.545428 20.0006 0)
(0.545428 20.0006 0)
(0.545428 20.0006 0)
(0.545428 20.0006 0)
(0.545428 20.0006 0)
(0.545428 20.0006 0)
(0.545428 20.0006 0)
(0.545428 20.0006 0)
(0.545428 20.0006 0)
(0.545428 20.0006 0)
(0.545428 20.0006 0)
(0.545428 20.0006 0)
(0.545428 20.0006 0)
(0.545428 20.0006 0)
(0.545428 20.0006 0)
(0.545428 20.0006 0)
(0.545428 20.0006 0)
(0.545428 20.0006 0)
(0.545428 20.0006 0)
(0.545428 20.0006 0)
(0.545428 20.0006 0)
(0.545428 20.0006 0)
(0.545428 20.0006 0)
(0.545428 20.0006 0)
(0.545428 20.0006 0)
(0.545428 20.0006 0)
(0.545428 20.0006 0)
(0.545428 20.0006 0)
(0.545428 20.0006 0)
(0.545428 20.0006 0)
(0.545428 20.0006 0)
(0.545428 20.0006 0)
(0.545428 20.0006 0)
(0.545428 20.0006 0)
(0.545428 20.0006 0)
(0.545428 20.0006 0)
(0.545428 20.0006 0)
(0.545428 20.0006 0)
(0.545428 20.0006 0)
(0.545428 20.0006 0)
(0.545428 20.0006 0)
(0.545428 20.0006 0)
(0.545428 20.0006 0)
(0.545428 20.0006 0)
(0.545428 20.0006 0)
(0.545428 20.0006 0)
(0.545428 20.0006 0)
(0.545428 20.0006 0)
(0.545428 20.0006 0)
(0.545428 20.0006 0)
(0.545428 20.0006 0)
(0.545428 20.0006 0)
(0.545428 20.0006 0)
(0.545428 20.0006 0)
(0.545428 20.0006 0)
(0.545428 20.0006 0)
(0.545428 20.0006 0)
(0.545428 20.0006 0)
(0.545428 20.0006 0)
(0.545428 20.0006 0)
(0.545428 20.0006 0)
(0.545428 20.0006 0)
(0.545428 20.0006 0)
(0.545428 20.0006 0)
(0.545428 20.0006 0)
(0.545429 20.0006 0)
(0.545429 20.0006 0)
(0.545431 20.0006 0)
(0.545434 20.0006 0)
(0.545442 20.0006 0)
(0.545459 20.0006 0)
(0.545511 20.0005 0)
(0.545617 20.0003 0)
(0.546064 19.9999 0)
(0.547055 19.9993 0)
(0.551737 19.9987 0)
(0.420264 19.6631 0)
(0.466506 19.786 0)
(0.459545 19.8687 0)
(0.484678 19.9178 0)
(0.479579 19.9509 0)
(0.490269 19.9701 0)
(0.488222 19.9829 0)
(0.49246 19.9901 0)
(0.491595 19.9947 0)
(0.493213 19.9972 0)
(0.49283 19.9988 0)
(0.493438 19.9996 0)
(0.493267 20.0001 0)
(0.493494 20.0003 0)
(0.493418 20.0005 0)
(0.493503 20.0005 0)
(0.49347 20.0006 0)
(0.493502 20.0006 0)
(0.493488 20.0006 0)
(0.4935 20.0006 0)
(0.493494 20.0006 0)
(0.493499 20.0006 0)
(0.493496 20.0006 0)
(0.493498 20.0006 0)
(0.493497 20.0006 0)
(0.493498 20.0006 0)
(0.493497 20.0006 0)
(0.493498 20.0006 0)
(0.493498 20.0006 0)
(0.493498 20.0006 0)
(0.493498 20.0006 0)
(0.493498 20.0006 0)
(0.493498 20.0006 0)
(0.493498 20.0006 0)
(0.493498 20.0006 0)
(0.493498 20.0006 0)
(0.493498 20.0006 0)
(0.493498 20.0006 0)
(0.493498 20.0006 0)
(0.493498 20.0006 0)
(0.493498 20.0006 0)
(0.493498 20.0006 0)
(0.493498 20.0006 0)
(0.493498 20.0006 0)
(0.493498 20.0006 0)
(0.493498 20.0006 0)
(0.493498 20.0006 0)
(0.493498 20.0006 0)
(0.493498 20.0006 0)
(0.493498 20.0006 0)
(0.493498 20.0006 0)
(0.493498 20.0006 0)
(0.493498 20.0006 0)
(0.493498 20.0006 0)
(0.493498 20.0006 0)
(0.493498 20.0006 0)
(0.493498 20.0006 0)
(0.493498 20.0006 0)
(0.493498 20.0006 0)
(0.493498 20.0006 0)
(0.493498 20.0006 0)
(0.493498 20.0006 0)
(0.493498 20.0006 0)
(0.493498 20.0006 0)
(0.493498 20.0006 0)
(0.493498 20.0006 0)
(0.493498 20.0006 0)
(0.493498 20.0006 0)
(0.493498 20.0006 0)
(0.493498 20.0006 0)
(0.493498 20.0006 0)
(0.493498 20.0006 0)
(0.493498 20.0006 0)
(0.493498 20.0006 0)
(0.493498 20.0006 0)
(0.493498 20.0006 0)
(0.493498 20.0006 0)
(0.493498 20.0006 0)
(0.493498 20.0006 0)
(0.493498 20.0006 0)
(0.493498 20.0006 0)
(0.493498 20.0006 0)
(0.493498 20.0006 0)
(0.493498 20.0006 0)
(0.493498 20.0006 0)
(0.493498 20.0006 0)
(0.493498 20.0006 0)
(0.493498 20.0006 0)
(0.493498 20.0006 0)
(0.493498 20.0006 0)
(0.493499 20.0006 0)
(0.4935 20.0006 0)
(0.493503 20.0006 0)
(0.493512 20.0006 0)
(0.493528 20.0005 0)
(0.493581 20.0004 0)
(0.493689 20.0002 0)
(0.494145 19.9998 0)
(0.495141 19.999 0)
(0.499803 19.998 0)
(0.37495 19.6425 0)
(0.415219 19.7711 0)
(0.409872 19.8595 0)
(0.432617 19.9117 0)
(0.428476 19.9474 0)
(0.438247 19.9678 0)
(0.436585 19.9816 0)
(0.440468 19.9892 0)
(0.43976 19.9942 0)
(0.441243 19.9969 0)
(0.440925 19.9986 0)
(0.441482 19.9995 0)
(0.441338 20 0)
(0.441545 20.0003 0)
(0.441481 20.0004 0)
(0.441558 20.0005 0)
(0.44153 20.0006 0)
(0.441558 20.0006 0)
(0.441546 20.0006 0)
(0.441557 20.0006 0)
(0.441552 20.0006 0)
(0.441556 20.0006 0)
(0.441554 20.0006 0)
(0.441556 20.0006 0)
(0.441555 20.0006 0)
(0.441556 20.0006 0)
(0.441555 20.0006 0)
(0.441555 20.0006 0)
(0.441555 20.0006 0)
(0.441555 20.0006 0)
(0.441555 20.0006 0)
(0.441555 20.0006 0)
(0.441555 20.0006 0)
(0.441555 20.0006 0)
(0.441555 20.0006 0)
(0.441555 20.0006 0)
(0.441555 20.0006 0)
(0.441555 20.0006 0)
(0.441555 20.0006 0)
(0.441555 20.0006 0)
(0.441555 20.0006 0)
(0.441555 20.0006 0)
(0.441555 20.0006 0)
(0.441555 20.0006 0)
(0.441555 20.0006 0)
(0.441555 20.0006 0)
(0.441555 20.0006 0)
(0.441555 20.0006 0)
(0.441555 20.0006 0)
(0.441555 20.0006 0)
(0.441555 20.0006 0)
(0.441555 20.0006 0)
(0.441555 20.0006 0)
(0.441555 20.0006 0)
(0.441555 20.0006 0)
(0.441555 20.0006 0)
(0.441555 20.0006 0)
(0.441555 20.0006 0)
(0.441555 20.0006 0)
(0.441555 20.0006 0)
(0.441555 20.0006 0)
(0.441555 20.0006 0)
(0.441555 20.0006 0)
(0.441555 20.0006 0)
(0.441555 20.0006 0)
(0.441555 20.0006 0)
(0.441555 20.0006 0)
(0.441555 20.0006 0)
(0.441555 20.0006 0)
(0.441555 20.0006 0)
(0.441555 20.0006 0)
(0.441555 20.0006 0)
(0.441555 20.0006 0)
(0.441555 20.0006 0)
(0.441555 20.0006 0)
(0.441555 20.0006 0)
(0.441555 20.0006 0)
(0.441555 20.0006 0)
(0.441555 20.0006 0)
(0.441555 20.0006 0)
(0.441555 20.0006 0)
(0.441555 20.0006 0)
(0.441555 20.0006 0)
(0.441555 20.0006 0)
(0.441555 20.0006 0)
(0.441555 20.0006 0)
(0.441555 20.0006 0)
(0.441556 20.0006 0)
(0.441556 20.0006 0)
(0.441556 20.0006 0)
(0.441557 20.0006 0)
(0.441558 20.0006 0)
(0.441561 20.0006 0)
(0.441569 20.0006 0)
(0.441585 20.0005 0)
(0.441637 20.0004 0)
(0.441743 20.0002 0)
(0.442196 19.9997 0)
(0.44317 19.9987 0)
(0.447682 19.9973 0)
(0.330029 19.6246 0)
(0.364701 19.7578 0)
(0.360633 19.8512 0)
(0.380896 19.9061 0)
(0.377573 19.9442 0)
(0.386358 19.9656 0)
(0.385025 19.9804 0)
(0.388524 19.9884 0)
(0.387951 19.9938 0)
(0.389288 19.9966 0)
(0.389027 19.9984 0)
(0.389528 19.9994 0)
(0.389408 20 0)
(0.389595 20.0002 0)
(0.38954 20.0004 0)
(0.389609 20.0005 0)
(0.389586 20.0006 0)
(0.389611 20.0006 0)
(0.389601 20.0006 0)
(0.389611 20.0006 0)
(0.389606 20.0006 0)
(0.38961 20.0006 0)
(0.389608 20.0006 0)
(0.38961 20.0006 0)
(0.389609 20.0006 0)
(0.389609 20.0006 0)
(0.389609 20.0006 0)
(0.389609 20.0006 0)
(0.389609 20.0006 0)
(0.389609 20.0006 0)
(0.389609 20.0006 0)
(0.389609 20.0006 0)
(0.389609 20.0006 0)
(0.389609 20.0006 0)
(0.389609 20.0006 0)
(0.389609 20.0006 0)
(0.389609 20.0006 0)
(0.389609 20.0006 0)
(0.389609 20.0006 0)
(0.389609 20.0006 0)
(0.389609 20.0006 0)
(0.389609 20.0006 0)
(0.389609 20.0006 0)
(0.389609 20.0006 0)
(0.389609 20.0006 0)
(0.389609 20.0006 0)
(0.389609 20.0006 0)
(0.389609 20.0006 0)
(0.389609 20.0006 0)
(0.389609 20.0006 0)
(0.389609 20.0006 0)
(0.389609 20.0006 0)
(0.389609 20.0006 0)
(0.389609 20.0006 0)
(0.389609 20.0006 0)
(0.389609 20.0006 0)
(0.389609 20.0006 0)
(0.389609 20.0006 0)
(0.389609 20.0006 0)
(0.389609 20.0006 0)
(0.389609 20.0006 0)
(0.389609 20.0006 0)
(0.389609 20.0006 0)
(0.389609 20.0006 0)
(0.389609 20.0006 0)
(0.389609 20.0006 0)
(0.389609 20.0006 0)
(0.389609 20.0006 0)
(0.389609 20.0006 0)
(0.389609 20.0006 0)
(0.389609 20.0006 0)
(0.389609 20.0006 0)
(0.389609 20.0006 0)
(0.389609 20.0006 0)
(0.389609 20.0006 0)
(0.389609 20.0006 0)
(0.389609 20.0006 0)
(0.389609 20.0006 0)
(0.389609 20.0006 0)
(0.389609 20.0006 0)
(0.389609 20.0006 0)
(0.389609 20.0006 0)
(0.389609 20.0006 0)
(0.389609 20.0006 0)
(0.389609 20.0006 0)
(0.389609 20.0006 0)
(0.389609 20.0006 0)
(0.389609 20.0006 0)
(0.38961 20.0006 0)
(0.38961 20.0006 0)
(0.38961 20.0006 0)
(0.389612 20.0006 0)
(0.389615 20.0006 0)
(0.389623 20.0006 0)
(0.389638 20.0005 0)
(0.389687 20.0004 0)
(0.389788 20.0002 0)
(0.390224 19.9996 0)
(0.391152 19.9983 0)
(0.395399 19.9966 0)
(0.285435 19.6091 0)
(0.314837 19.7461 0)
(0.311778 19.8438 0)
(0.329481 19.9012 0)
(0.326852 19.9413 0)
(0.33459 19.9637 0)
(0.333537 19.9793 0)
(0.336624 19.9877 0)
(0.336167 19.9934 0)
(0.337348 19.9963 0)
(0.337136 19.9983 0)
(0.337579 19.9993 0)
(0.337481 19.9999 0)
(0.337645 20.0002 0)
(0.3376 20.0004 0)
(0.337661 20.0005 0)
(0.337641 20.0005 0)
(0.337663 20.0006 0)
(0.337655 20.0006 0)
(0.337663 20.0006 0)
(0.337659 20.0006 0)
(0.337663 20.0006 0)
(0.337661 20.0006 0)
(0.337662 20.0006 0)
(0.337662 20.0006 0)
(0.337662 20.0006 0)
(0.337662 20.0006 0)
(0.337662 20.0006 0)
(0.337662 20.0006 0)
(0.337662 20.0006 0)
(0.337662 20.0006 0)
(0.337662 20.0006 0)
(0.337662 20.0006 0)
(0.337662 20.0006 0)
(0.337662 20.0006 0)
(0.337662 20.0006 0)
(0.337662 20.0006 0)
(0.337662 20.0006 0)
(0.337662 20.0006 0)
(0.337662 20.0006 0)
(0.337662 20.0006 0)
(0.337662 20.0006 0)
(0.337662 20.0006 0)
(0.337662 20.0006 0)
(0.337662 20.0006 0)
(0.337662 20.0006 0)
(0.337662 20.0006 0)
(0.337662 20.0006 0)
(0.337662 20.0006 0)
(0.337662 20.0006 0)
(0.337662 20.0006 0)
(0.337662 20.0006 0)
(0.337662 20.0006 0)
(0.337662 20.0006 0)
(0.337662 20.0006 0)
(0.337662 20.0006 0)
(0.337662 20.0006 0)
(0.337662 20.0006 0)
(0.337662 20.0006 0)
(0.337662 20.0006 0)
(0.337662 20.0006 0)
(0.337662 20.0006 0)
(0.337662 20.0006 0)
(0.337662 20.0006 0)
(0.337662 20.0006 0)
(0.337662 20.0006 0)
(0.337662 20.0006 0)
(0.337662 20.0006 0)
(0.337662 20.0006 0)
(0.337662 20.0006 0)
(0.337662 20.0006 0)
(0.337662 20.0006 0)
(0.337662 20.0006 0)
(0.337662 20.0006 0)
(0.337662 20.0006 0)
(0.337662 20.0006 0)
(0.337662 20.0006 0)
(0.337662 20.0006 0)
(0.337662 20.0006 0)
(0.337662 20.0006 0)
(0.337662 20.0006 0)
(0.337662 20.0006 0)
(0.337662 20.0006 0)
(0.337662 20.0006 0)
(0.337662 20.0006 0)
(0.337662 20.0006 0)
(0.337662 20.0006 0)
(0.337662 20.0006 0)
(0.337662 20.0006 0)
(0.337662 20.0006 0)
(0.337663 20.0006 0)
(0.337664 20.0006 0)
(0.337667 20.0006 0)
(0.337674 20.0006 0)
(0.337688 20.0005 0)
(0.337734 20.0004 0)
(0.337828 20.0001 0)
(0.338235 19.9995 0)
(0.339091 19.998 0)
(0.342972 19.996 0)
(0.241107 19.5961 0)
(0.265522 19.7361 0)
(0.263255 19.8375 0)
(0.278334 19.8969 0)
(0.27629 19.9388 0)
(0.282929 19.962 0)
(0.282112 19.9783 0)
(0.284765 19.987 0)
(0.284407 19.993 0)
(0.285422 19.9961 0)
(0.285254 19.9982 0)
(0.285635 19.9992 0)
(0.285555 19.9999 0)