/*--------------------------------*- C++ -*----------------------------------*\
| =========                 |                                                 |
| \\      /  F ield         | OpenFOAM: The Open Source CFD Toolbox           |
|  \\    /   O peration     | Version:  v1906                                 |
|   \\  /    A nd           | Web:      www.OpenFOAM.com                      |
|    \\/     M anipulation  |                                                 |
\*---------------------------------------------------------------------------*/
FoamFile
{
    version     2.0;
    format      ascii;
    class       volVectorField;
    location    "1";
    object      B;
}
// * * * * * * * * * * * * * * * * * * * * * * * * * * * * * * * * * * * * * //

dimensions      [1 0 -2 0 0 -1 0];


internalField   nonuniform List<vector> 
4000
(
(0.483024 20.045 0)
(0.501146 19.9961 0)
(0.48477 19.9866 0)
(0.490881 19.9858 0)
(0.491834 19.9873 0)
(0.493922 19.9898 0)
(0.494502 19.9921 0)
(0.494999 19.9939 0)
(0.495165 19.9953 0)
(0.495296 19.9964 0)
(0.495355 19.9973 0)
(0.495397 19.998 0)
(0.495416 19.9985 0)
(0.495425 19.9989 0)
(0.495423 19.9992 0)
(0.495416 19.9994 0)
(0.495404 19.9995 0)
(0.495391 19.9997 0)
(0.495377 19.9998 0)
(0.495363 19.9998 0)
(0.49535 19.9999 0)
(0.495339 19.9999 0)
(0.495329 19.9999 0)
(0.49532 20 0)
(0.495313 20 0)
(0.495308 20 0)
(0.495303 20 0)
(0.4953 20 0)
(0.495297 20 0)
(0.495295 20 0)
(0.495293 20 0)
(0.495292 20 0)
(0.495291 20 0)
(0.495291 20 0)
(0.49529 20 0)
(0.49529 20 0)
(0.49529 20 0)
(0.495289 20 0)
(0.495289 20 0)
(0.495289 20 0)
(0.495289 20 0)
(0.495289 20 0)
(0.495289 20 0)
(0.495289 20 0)
(0.495289 20 0)
(0.495289 20 0)
(0.495289 20 0)
(0.495289 20 0)
(0.495289 20 0)
(0.495289 20 0)
(0.495289 20 0)
(0.495289 20 0)
(0.495289 20 0)
(0.495289 20 0)
(0.495289 20 0)
(0.495289 20 0)
(0.495289 20 0)
(0.495289 20 0)
(0.495289 20 0)
(0.495289 20 0)
(0.495289 20 0)
(0.495289 20 0)
(0.495289 20 0)
(0.495289 20 0)
(0.495289 20 0)
(0.495289 20 0)
(0.495289 20 0)
(0.495289 20 0)
(0.495289 20 0)
(0.495289 20 0)
(0.495289 20 0)
(0.495289 20 0)
(0.495289 20 0)
(0.495289 20 0)
(0.495289 20 0)
(0.495289 20 0)
(0.495289 20 0)
(0.495289 20 0)
(0.495289 20 0)
(0.495289 20 0)
(0.495289 20 0)
(0.495289 20 0)
(0.495289 20 0)
(0.495289 20 0)
(0.495289 20 0)
(0.495289 20 0)
(0.495289 20 0)
(0.495289 20 0)
(0.495289 20 0)
(0.495289 20 0)
(0.495289 20 0)
(0.495291 20 0)
(0.495295 20 0)
(0.495304 20 0)
(0.495322 19.9999 0)
(0.495352 20 0)
(0.495401 20 0)
(0.495373 20.0002 0)
(0.495264 20.0005 0)
(0.494406 20.0007 0)
(0.842941 20.0153 0)
(0.895762 19.9704 0)
(0.897754 19.9582 0)
(0.912949 19.9576 0)
(0.917458 19.963 0)
(0.922194 19.9704 0)
(0.924176 19.977 0)
(0.925728 19.9825 0)
(0.926602 19.9868 0)
(0.927287 19.9901 0)
(0.927763 19.9927 0)
(0.928133 19.9946 0)
(0.928404 19.9962 0)
(0.928607 19.9973 0)
(0.928752 19.9982 0)
(0.928856 19.9989 0)
(0.928926 19.9994 0)
(0.928973 19.9998 0)
(0.929002 20.0001 0)
(0.929018 20.0003 0)
(0.929027 20.0005 0)
(0.92903 20.0006 0)
(0.92903 20.0006 0)
(0.929028 20.0007 0)
(0.929025 20.0007 0)
(0.929022 20.0007 0)
(0.929019 20.0008 0)
(0.929016 20.0008 0)
(0.929014 20.0008 0)
(0.929012 20.0008 0)
(0.92901 20.0008 0)
(0.929009 20.0008 0)
(0.929008 20.0008 0)
(0.929007 20.0008 0)
(0.929007 20.0008 0)
(0.929006 20.0008 0)
(0.929006 20.0008 0)
(0.929006 20.0008 0)
(0.929006 20.0008 0)
(0.929006 20.0008 0)
(0.929005 20.0008 0)
(0.929005 20.0008 0)
(0.929005 20.0008 0)
(0.929005 20.0008 0)
(0.929005 20.0008 0)
(0.929005 20.0008 0)
(0.929005 20.0008 0)
(0.929005 20.0008 0)
(0.929005 20.0008 0)
(0.929006 20.0008 0)
(0.929006 20.0008 0)
(0.929006 20.0008 0)
(0.929006 20.0008 0)
(0.929006 20.0008 0)
(0.929006 20.0008 0)
(0.929006 20.0008 0)
(0.929005 20.0008 0)
(0.929005 20.0008 0)
(0.929005 20.0008 0)
(0.929005 20.0008 0)
(0.929005 20.0008 0)
(0.929005 20.0008 0)
(0.929005 20.0008 0)
(0.929005 20.0008 0)
(0.929005 20.0008 0)
(0.929005 20.0008 0)
(0.929005 20.0008 0)
(0.929005 20.0008 0)
(0.929005 20.0008 0)
(0.929005 20.0008 0)
(0.929006 20.0008 0)
(0.929006 20.0008 0)
(0.929006 20.0008 0)
(0.929006 20.0008 0)
(0.929006 20.0008 0)
(0.929005 20.0008 0)
(0.929005 20.0008 0)
(0.929005 20.0008 0)
(0.929005 20.0008 0)
(0.929005 20.0008 0)
(0.929005 20.0008 0)
(0.929005 20.0008 0)
(0.929005 20.0008 0)
(0.929006 20.0008 0)
(0.929006 20.0008 0)
(0.929006 20.0008 0)
(0.929007 20.0008 0)
(0.929008 20.0008 0)
(0.92901 20.0008 0)
(0.929014 20.0008 0)
(0.92902 20.0008 0)
(0.929031 20.0007 0)
(0.92905 20.0007 0)
(0.929083 20.0007 0)
(0.929144 20.0006 0)
(0.929244 20.0007 0)
(0.929408 20.0008 0)
(0.929528 20.0013 0)
(0.929511 20.0022 0)
(0.927899 20.003 0)
(0.947613 19.9263 0)
(1.01628 19.927 0)
(1.04475 19.9249 0)
(1.06833 19.928 0)
(1.07703 19.9382 0)
(1.08386 19.9504 0)
(1.08722 19.9614 0)
(1.08977 19.9705 0)
(1.09143 19.9775 0)
(1.09274 19.983 0)
(1.09372 19.9873 0)
(1.09449 19.9906 0)
(1.09508 19.9931 0)
(1.09553 19.9951 0)
(1.09588 19.9966 0)
(1.09614 19.9977 0)
(1.09633 19.9986 0)
(1.09647 19.9992 0)
(1.09657 19.9997 0)
(1.09664 20.0001 0)
(1.09668 20.0003 0)
(1.09672 20.0005 0)
(1.09674 20.0006 0)
(1.09675 20.0007 0)
(1.09676 20.0008 0)
(1.09677 20.0008 0)
(1.09677 20.0009 0)
(1.09677 20.0009 0)
(1.09677 20.0009 0)
(1.09677 20.0009 0)
(1.09677 20.0009 0)
(1.09677 20.0009 0)
(1.09677 20.0009 0)
(1.09677 20.0009 0)
(1.09677 20.0009 0)
(1.09677 20.0009 0)
(1.09677 20.0009 0)
(1.09677 20.0009 0)
(1.09677 20.0009 0)
(1.09677 20.0009 0)
(1.09677 20.0009 0)
(1.09677 20.0009 0)
(1.09677 20.0009 0)
(1.09677 20.0009 0)
(1.09677 20.0009 0)
(1.09677 20.0009 0)
(1.09677 20.0009 0)
(1.09677 20.0009 0)
(1.09677 20.0009 0)
(1.09677 20.0009 0)
(1.09677 20.0009 0)
(1.09677 20.0009 0)
(1.09677 20.0009 0)
(1.09677 20.0009 0)
(1.09677 20.0009 0)
(1.09677 20.0009 0)
(1.09677 20.0009 0)
(1.09677 20.0009 0)
(1.09677 20.0009 0)
(1.09677 20.0009 0)
(1.09677 20.0009 0)
(1.09677 20.0009 0)
(1.09677 20.0009 0)
(1.09677 20.0009 0)
(1.09677 20.0009 0)
(1.09677 20.0009 0)
(1.09677 20.0009 0)
(1.09677 20.0009 0)
(1.09677 20.0009 0)
(1.09677 20.0009 0)
(1.09677 20.0009 0)
(1.09677 20.0009 0)
(1.09677 20.0009 0)
(1.09677 20.0009 0)
(1.09677 20.0009 0)
(1.09677 20.0009 0)
(1.09677 20.0009 0)
(1.09677 20.0009 0)
(1.09677 20.0009 0)
(1.09677 20.0009 0)
(1.09677 20.0009 0)
(1.09677 20.0009 0)
(1.09677 20.0009 0)
(1.09677 20.0009 0)
(1.09677 20.0009 0)
(1.09677 20.0009 0)
(1.09677 20.0009 0)
(1.09678 20.0009 0)
(1.09678 20.0009 0)
(1.09679 20.0009 0)
(1.0968 20.0009 0)
(1.09682 20.0008 0)
(1.09686 20.0008 0)
(1.09692 20.0007 0)
(1.09703 20.0007 0)
(1.09721 20.0007 0)
(1.09752 20.0009 0)
(1.09791 20.0016 0)
(1.09826 20.003 0)
(1.09707 20.0045 0)
(0.946012 19.8283 0)
(1.01684 19.8723 0)
(1.06635 19.8869 0)
(1.0972 19.8971 0)
(1.11009 19.9132 0)
(1.11876 19.9304 0)
(1.12339 19.9457 0)
(1.12684 19.9582 0)
(1.12923 19.968 0)
(1.13114 19.9757 0)
(1.1326 19.9816 0)
(1.13377 19.9862 0)
(1.13468 19.9898 0)
(1.13539 19.9926 0)
(1.13594 19.9947 0)
(1.13636 19.9963 0)
(1.13668 19.9975 0)
(1.13691 19.9984 0)
(1.13709 19.999 0)
(1.13721 19.9995 0)
(1.13731 19.9999 0)
(1.13737 20.0002 0)
(1.13742 20.0003 0)
(1.13745 20.0005 0)
(1.13747 20.0006 0)
(1.13749 20.0006 0)
(1.1375 20.0007 0)
(1.1375 20.0007 0)
(1.13751 20.0007 0)
(1.13751 20.0007 0)
(1.13751 20.0007 0)
(1.13751 20.0007 0)
(1.13751 20.0007 0)
(1.13751 20.0007 0)
(1.13751 20.0007 0)
(1.13752 20.0007 0)
(1.13752 20.0007 0)
(1.13752 20.0007 0)
(1.13752 20.0007 0)
(1.13752 20.0007 0)
(1.13752 20.0007 0)
(1.13752 20.0007 0)
(1.13752 20.0007 0)
(1.13752 20.0007 0)
(1.13752 20.0007 0)
(1.13752 20.0007 0)
(1.13752 20.0007 0)
(1.13752 20.0007 0)
(1.13752 20.0007 0)
(1.13752 20.0007 0)
(1.13752 20.0007 0)
(1.13752 20.0007 0)
(1.13752 20.0007 0)
(1.13752 20.0007 0)
(1.13752 20.0007 0)
(1.13752 20.0007 0)
(1.13752 20.0007 0)
(1.13752 20.0007 0)
(1.13752 20.0007 0)
(1.13752 20.0007 0)
(1.13752 20.0007 0)
(1.13752 20.0007 0)
(1.13752 20.0007 0)
(1.13752 20.0007 0)
(1.13752 20.0007 0)
(1.13752 20.0007 0)
(1.13752 20.0007 0)
(1.13752 20.0007 0)
(1.13752 20.0007 0)
(1.13752 20.0007 0)
(1.13752 20.0007 0)
(1.13752 20.0007 0)
(1.13752 20.0007 0)
(1.13752 20.0007 0)
(1.13752 20.0007 0)
(1.13752 20.0007 0)
(1.13752 20.0007 0)
(1.13752 20.0007 0)
(1.13752 20.0007 0)
(1.13752 20.0007 0)
(1.13752 20.0007 0)
(1.13752 20.0007 0)
(1.13752 20.0007 0)
(1.13752 20.0007 0)
(1.13752 20.0007 0)
(1.13752 20.0007 0)
(1.13752 20.0007 0)
(1.13753 20.0007 0)
(1.13754 20.0007 0)
(1.13755 20.0007 0)
(1.13757 20.0007 0)
(1.1376 20.0006 0)
(1.13766 20.0005 0)
(1.13775 20.0005 0)
(1.1379 20.0004 0)
(1.13817 20.0004 0)
(1.13865 20.0006 0)
(1.1394 20.0014 0)
(1.1403 20.0032 0)
(1.14034 20.005 0)
(0.90157 19.7385 0)
(0.967362 19.8127 0)
(1.03019 19.8456 0)
(1.0667 19.8657 0)
(1.08337 19.8885 0)
(1.09366 19.9108 0)
(1.09941 19.9302 0)
(1.10364 19.9461 0)
(1.10668 19.9586 0)
(1.1091 19.9684 0)
(1.111 19.976 0)
(1.11252 19.9819 0)
(1.11371 19.9865 0)
(1.11466 19.99 0)
(1.11539 19.9927 0)
(1.11595 19.9948 0)
(1.11638 19.9964 0)
(1.11671 19.9975 0)
(1.11695 19.9984 0)
(1.11714 19.999 0)
(1.11727 19.9995 0)
(1.11737 19.9998 0)
(1.11743 20.0001 0)
(1.11748 20.0002 0)
(1.11752 20.0004 0)
(1.11754 20.0004 0)
(1.11756 20.0005 0)
(1.11757 20.0005 0)
(1.11758 20.0006 0)
(1.11759 20.0006 0)
(1.11759 20.0006 0)
(1.11759 20.0006 0)
(1.1176 20.0006 0)
(1.1176 20.0006 0)
(1.1176 20.0006 0)
(1.1176 20.0006 0)
(1.1176 20.0006 0)
(1.1176 20.0006 0)
(1.1176 20.0006 0)
(1.1176 20.0006 0)
(1.1176 20.0006 0)
(1.1176 20.0006 0)
(1.1176 20.0006 0)
(1.1176 20.0006 0)
(1.1176 20.0006 0)
(1.1176 20.0006 0)
(1.1176 20.0006 0)
(1.1176 20.0006 0)
(1.1176 20.0006 0)
(1.1176 20.0006 0)
(1.1176 20.0006 0)
(1.1176 20.0006 0)
(1.1176 20.0006 0)
(1.1176 20.0006 0)
(1.1176 20.0006 0)
(1.1176 20.0006 0)
(1.1176 20.0006 0)
(1.1176 20.0006 0)
(1.1176 20.0006 0)
(1.1176 20.0006 0)
(1.1176 20.0006 0)
(1.1176 20.0006 0)
(1.1176 20.0006 0)
(1.1176 20.0006 0)
(1.1176 20.0006 0)
(1.1176 20.0006 0)
(1.1176 20.0006 0)
(1.1176 20.0006 0)
(1.1176 20.0006 0)
(1.1176 20.0006 0)
(1.1176 20.0006 0)
(1.1176 20.0006 0)
(1.1176 20.0006 0)
(1.1176 20.0006 0)
(1.1176 20.0006 0)
(1.1176 20.0006 0)
(1.1176 20.0006 0)
(1.1176 20.0006 0)
(1.1176 20.0006 0)
(1.1176 20.0006 0)
(1.1176 20.0006 0)
(1.1176 20.0006 0)
(1.1176 20.0006 0)
(1.1176 20.0006 0)
(1.1176 20.0006 0)
(1.11761 20.0006 0)
(1.11761 20.0006 0)
(1.11762 20.0006 0)
(1.11763 20.0006 0)
(1.11764 20.0005 0)
(1.11767 20.0005 0)
(1.11771 20.0004 0)
(1.11778 20.0004 0)
(1.1179 20.0002 0)
(1.11811 20.0001 0)
(1.11848 20.0001 0)
(1.11913 20.0003 0)
(1.12026 20.0011 0)
(1.12184 20.003 0)
(1.12341 20.005 0)
(0.841311 19.66 0)
(0.899168 19.7525 0)
(0.96863 19.8027 0)
(1.00901 19.834 0)
(1.02879 19.8642 0)
(1.04045 19.8917 0)
(1.04715 19.9153 0)
(1.05202 19.9344 0)
(1.05559 19.9495 0)
(1.05844 19.9613 0)
(1.06069 19.9706 0)
(1.0625 19.9777 0)
(1.06394 19.9833 0)
(1.06507 19.9876 0)
(1.06596 19.9909 0)
(1.06664 19.9934 0)
(1.06717 19.9953 0)
(1.06758 19.9967 0)
(1.06788 19.9978 0)
(1.06811 19.9986 0)
(1.06827 19.9992 0)
(1.0684 19.9996 0)
(1.06849 19.9999 0)
(1.06855 20.0001 0)
(1.0686 20.0002 0)
(1.06863 20.0003 0)
(1.06866 20.0004 0)
(1.06867 20.0005 0)
(1.06869 20.0005 0)
(1.06869 20.0005 0)
(1.0687 20.0005 0)
(1.0687 20.0005 0)
(1.06871 20.0005 0)
(1.06871 20.0005 0)
(1.06871 20.0005 0)
(1.06871 20.0005 0)
(1.06871 20.0005 0)
(1.06871 20.0005 0)
(1.06871 20.0005 0)
(1.06871 20.0005 0)
(1.06871 20.0005 0)
(1.06871 20.0005 0)
(1.06871 20.0005 0)
(1.06871 20.0005 0)
(1.06871 20.0005 0)
(1.06871 20.0005 0)
(1.06871 20.0005 0)
(1.06871 20.0005 0)
(1.06871 20.0005 0)
(1.06871 20.0005 0)
(1.06871 20.0005 0)
(1.06871 20.0005 0)
(1.06871 20.0005 0)
(1.06871 20.0005 0)
(1.06871 20.0005 0)
(1.06871 20.0005 0)
(1.06871 20.0005 0)
(1.06871 20.0005 0)
(1.06871 20.0005 0)
(1.06871 20.0005 0)
(1.06871 20.0005 0)
(1.06871 20.0005 0)
(1.06871 20.0005 0)
(1.06871 20.0005 0)
(1.06871 20.0005 0)
(1.06871 20.0005 0)
(1.06871 20.0005 0)
(1.06871 20.0005 0)
(1.06871 20.0005 0)
(1.06871 20.0005 0)
(1.06871 20.0005 0)
(1.06871 20.0005 0)
(1.06871 20.0005 0)
(1.06871 20.0005 0)
(1.06871 20.0005 0)
(1.06871 20.0005 0)
(1.06871 20.0005 0)
(1.06871 20.0005 0)
(1.06871 20.0005 0)
(1.06871 20.0005 0)
(1.06871 20.0005 0)
(1.06871 20.0005 0)
(1.06871 20.0005 0)
(1.06871 20.0005 0)
(1.06872 20.0005 0)
(1.06872 20.0005 0)
(1.06873 20.0005 0)
(1.06873 20.0005 0)
(1.06875 20.0005 0)
(1.06877 20.0005 0)
(1.0688 20.0004 0)
(1.06885 20.0003 0)
(1.06894 20.0002 0)
(1.06908 20.0001 0)
(1.06934 19.9999 0)
(1.0698 19.9998 0)
(1.07063 19.9999 0)
(1.07215 20.0007 0)
(1.0744 20.0025 0)
(1.07745 20.0043 0)
(0.776522 19.5922 0)
(0.825899 19.6944 0)
(0.897011 19.7595 0)
(0.939513 19.8026 0)
(0.961606 19.8404 0)
(0.97435 19.8732 0)
(0.981813 19.9008 0)
(0.987179 19.923 0)
(0.991152 19.9407 0)
(0.994332 19.9545 0)
(0.996858 19.9653 0)
(0.998891 19.9737 0)
(1.00051 19.9802 0)
(1.00179 19.9852 0)
(1.0028 19.9891 0)
(1.00358 19.9921 0)
(1.00419 19.9943 0)
(1.00465 19.996 0)
(1.005 19.9972 0)
(1.00527 19.9982 0)
(1.00546 19.9989 0)
(1.00561 19.9993 0)
(1.00572 19.9997 0)
(1.00579 20 0)
(1.00585 20.0001 0)
(1.00589 20.0003 0)
(1.00592 20.0003 0)
(1.00594 20.0004 0)
(1.00595 20.0004 0)
(1.00596 20.0005 0)
(1.00597 20.0005 0)
(1.00598 20.0005 0)
(1.00598 20.0005 0)
(1.00598 20.0005 0)
(1.00598 20.0005 0)
(1.00598 20.0005 0)
(1.00599 20.0005 0)
(1.00599 20.0005 0)
(1.00599 20.0005 0)
(1.00599 20.0005 0)
(1.00599 20.0005 0)
(1.00599 20.0005 0)
(1.00599 20.0005 0)
(1.00599 20.0005 0)
(1.00599 20.0005 0)
(1.00599 20.0005 0)
(1.00599 20.0005 0)
(1.00599 20.0005 0)
(1.00599 20.0005 0)
(1.00599 20.0005 0)
(1.00599 20.0005 0)
(1.00599 20.0005 0)
(1.00599 20.0005 0)
(1.00599 20.0005 0)
(1.00599 20.0005 0)
(1.00599 20.0005 0)
(1.00599 20.0005 0)
(1.00599 20.0005 0)
(1.00599 20.0005 0)
(1.00599 20.0005 0)
(1.00599 20.0005 0)
(1.00599 20.0005 0)
(1.00599 20.0005 0)
(1.00599 20.0005 0)
(1.00599 20.0005 0)
(1.00599 20.0005 0)
(1.00599 20.0005 0)
(1.00599 20.0005 0)
(1.00599 20.0005 0)
(1.00599 20.0005 0)
(1.00599 20.0005 0)
(1.00599 20.0005 0)
(1.00599 20.0005 0)
(1.00599 20.0005 0)
(1.00599 20.0005 0)
(1.00599 20.0005 0)
(1.00599 20.0005 0)
(1.00599 20.0005 0)
(1.00599 20.0005 0)
(1.00599 20.0005 0)
(1.00599 20.0005 0)
(1.00599 20.0005 0)
(1.00599 20.0005 0)
(1.00599 20.0005 0)
(1.00599 20.0005 0)
(1.006 20.0005 0)
(1.006 20.0005 0)
(1.00601 20.0005 0)
(1.00603 20.0005 0)
(1.00605 20.0004 0)
(1.00609 20.0004 0)
(1.00615 20.0003 0)
(1.00625 20.0001 0)
(1.00642 20 0)
(1.00671 19.9997 0)
(1.00726 19.9995 0)
(1.00827 19.9996 0)
(1.01014 20.0001 0)
(1.013 20.0016 0)
(1.01731 20.0031 0)
(0.711652 19.5341 0)
(0.753106 19.6396 0)
(0.822455 19.7172 0)
(0.865549 19.7718 0)
(0.889128 19.8173 0)
(0.902619 19.8554 0)
(0.910635 19.8869 0)
(0.916351 19.9122 0)
(0.920609 19.9321 0)
(0.924014 19.9479 0)
(0.926731 19.9601 0)
(0.928921 19.9697 0)
(0.930668 19.9772 0)
(0.932057 19.983 0)
(0.93315 19.9874 0)
(0.934003 19.9908 0)
(0.934664 19.9933 0)
(0.935171 19.9953 0)
(0.935557 19.9967 0)
(0.935848 19.9978 0)
(0.936066 19.9986 0)
(0.936227 19.9991 0)
(0.936346 19.9995 0)
(0.936434 19.9998 0)
(0.936497 20 0)
(0.936543 20.0002 0)
(0.936576 20.0003 0)
(0.936599 20.0004 0)
(0.936616 20.0004 0)
(0.936627 20.0004 0)
(0.936636 20.0005 0)
(0.936641 20.0005 0)
(0.936645 20.0005 0)
(0.936648 20.0005 0)
(0.93665 20.0005 0)
(0.936651 20.0005 0)
(0.936652 20.0005 0)
(0.936653 20.0005 0)
(0.936653 20.0005 0)
(0.936654 20.0005 0)
(0.936654 20.0005 0)
(0.936654 20.0005 0)
(0.936654 20.0005 0)
(0.936654 20.0005 0)
(0.936654 20.0005 0)
(0.936655 20.0005 0)
(0.936655 20.0005 0)
(0.936655 20.0005 0)
(0.936655 20.0005 0)
(0.936655 20.0005 0)
(0.936655 20.0005 0)
(0.936655 20.0005 0)
(0.936655 20.0005 0)
(0.936655 20.0005 0)
(0.936655 20.0005 0)
(0.936655 20.0005 0)
(0.936654 20.0005 0)
(0.936654 20.0005 0)
(0.936654 20.0005 0)
(0.936654 20.0005 0)
(0.936654 20.0005 0)
(0.936654 20.0005 0)
(0.936654 20.0005 0)
(0.936654 20.0005 0)
(0.936654 20.0005 0)
(0.936654 20.0005 0)
(0.936655 20.0005 0)
(0.936655 20.0005 0)
(0.936655 20.0005 0)
(0.936655 20.0005 0)
(0.936655 20.0005 0)
(0.936655 20.0005 0)
(0.936655 20.0005 0)
(0.936655 20.0005 0)
(0.936655 20.0005 0)
(0.936655 20.0005 0)
(0.936655 20.0005 0)
(0.936655 20.0005 0)
(0.936655 20.0005 0)
(0.936655 20.0005 0)
(0.936655 20.0005 0)
(0.936656 20.0005 0)
(0.936657 20.0005 0)
(0.936659 20.0005 0)
(0.936662 20.0005 0)
(0.936666 20.0005 0)
(0.936672 20.0005 0)
(0.936683 20.0005 0)
(0.936699 20.0004 0)
(0.936724 20.0004 0)
(0.936765 20.0003 0)
(0.936831 20.0002 0)
(0.936941 20.0001 0)
(0.937131 19.9998 0)
(0.937466 19.9996 0)
(0.938094 19.9993 0)
(0.939241 19.9991 0)
(0.941426 19.9993 0)
(0.94479 20.0004 0)
(0.950051 20.0014 0)
(0.648236 19.4844 0)
(0.682734 19.5892 0)
(0.748146 19.6767 0)
(0.790554 19.7421 0)
(0.814824 19.7952 0)
(0.828711 19.8384 0)
(0.837063 19.8737 0)
(0.842978 19.9018 0)
(0.847401 19.924 0)
(0.850934 19.9415 0)
(0.85376 19.9552 0)
(0.85604 19.966 0)
(0.857864 19.9743 0)
(0.859316 19.9808 0)
(0.860461 19.9857 0)
(0.861357 19.9895 0)
(0.862051 19.9924 0)
(0.862586 19.9946 0)
(0.862993 19.9962 0)
(0.863301 19.9974 0)
(0.863533 19.9983 0)
(0.863705 19.9989 0)
(0.863832 19.9994 0)
(0.863926 19.9997 0)
(0.863994 20 0)
(0.864043 20.0001 0)
(0.864079 20.0002 0)
(0.864104 20.0003 0)
(0.864123 20.0004 0)
(0.864135 20.0004 0)
(0.864144 20.0004 0)
(0.864151 20.0005 0)
(0.864155 20.0005 0)
(0.864158 20.0005 0)
(0.864161 20.0005 0)
(0.864162 20.0005 0)
(0.864163 20.0005 0)
(0.864164 20.0005 0)
(0.864164 20.0005 0)
(0.864165 20.0005 0)
(0.864165 20.0005 0)
(0.864165 20.0005 0)
(0.864165 20.0005 0)
(0.864165 20.0005 0)
(0.864166 20.0005 0)
(0.864166 20.0005 0)
(0.864166 20.0005 0)
(0.864166 20.0005 0)
(0.864166 20.0005 0)
(0.864166 20.0005 0)
(0.864166 20.0005 0)
(0.864166 20.0005 0)
(0.864166 20.0005 0)
(0.864166 20.0005 0)
(0.864166 20.0005 0)
(0.864166 20.0005 0)
(0.864166 20.0005 0)
(0.864166 20.0005 0)
(0.864165 20.0005 0)
(0.864165 20.0005 0)
(0.864165 20.0005 0)
(0.864165 20.0005 0)
(0.864165 20.0005 0)
(0.864165 20.0005 0)
(0.864165 20.0005 0)
(0.864166 20.0005 0)
(0.864166 20.0005 0)
(0.864166 20.0005 0)
(0.864166 20.0005 0)
(0.864166 20.0005 0)
(0.864166 20.0005 0)
(0.864166 20.0005 0)
(0.864166 20.0005 0)
(0.864166 20.0005 0)
(0.864166 20.0005 0)
(0.864166 20.0005 0)
(0.864166 20.0005 0)
(0.864166 20.0005 0)
(0.864166 20.0005 0)
(0.864166 20.0005 0)
(0.864166 20.0005 0)
(0.864167 20.0005 0)
(0.864168 20.0005 0)
(0.86417 20.0005 0)
(0.864173 20.0005 0)
(0.864178 20.0005 0)
(0.864185 20.0005 0)
(0.864196 20.0004 0)
(0.864213 20.0004 0)
(0.86424 20.0004 0)
(0.864283 20.0003 0)
(0.864354 20.0002 0)
(0.864472 20 0)
(0.864677 19.9997 0)
(0.865042 19.9994 0)
(0.865731 19.999 0)
(0.866995 19.9986 0)
(0.86942 19.9984 0)
(0.873164 19.9989 0)
(0.879061 19.9994 0)
(0.586618 19.4418 0)
(0.615191 19.5434 0)
(0.675382 19.6386 0)
(0.716086 19.7138 0)
(0.740318 19.7741 0)
(0.754249 19.8224 0)
(0.762717 19.8612 0)
(0.768687 19.892 0)
(0.773157 19.9164 0)
(0.776724 19.9355 0)
(0.779582 19.9506 0)
(0.78189 19.9624 0)
(0.783739 19.9716 0)
(0.785212 19.9787 0)
(0.786376 19.9841 0)
(0.787288 19.9883 0)
(0.787997 19.9915 0)
(0.788543 19.9939 0)
(0.788959 19.9957 0)
(0.789276 19.997 0)
(0.789513 19.998 0)
(0.789691 19.9987 0)
(0.789822 19.9992 0)
(0.789919 19.9996 0)
(0.78999 19.9999 0)
(0.790041 20.0001 0)
(0.790078 20.0002 0)
(0.790105 20.0003 0)
(0.790124 20.0004 0)
(0.790137 20.0004 0)
(0.790147 20.0004 0)
(0.790154 20.0004 0)
(0.790158 20.0005 0)
(0.790162 20.0005 0)
(0.790164 20.0005 0)
(0.790166 20.0005 0)
(0.790167 20.0005 0)
(0.790167 20.0005 0)
(0.790168 20.0005 0)
(0.790168 20.0005 0)
(0.790169 20.0005 0)
(0.790169 20.0005 0)
(0.790169 20.0005 0)
(0.790169 20.0005 0)
(0.790169 20.0005 0)
(0.79017 20.0005 0)
(0.79017 20.0005 0)
(0.79017 20.0005 0)
(0.79017 20.0005 0)
(0.79017 20.0005 0)
(0.79017 20.0005 0)
(0.79017 20.0005 0)
(0.79017 20.0005 0)
(0.79017 20.0005 0)
(0.79017 20.0005 0)
(0.790169 20.0005 0)
(0.790169 20.0005 0)
(0.790169 20.0005 0)
(0.790169 20.0005 0)
(0.790169 20.0005 0)
(0.790169 20.0005 0)
(0.790169 20.0005 0)
(0.790169 20.0005 0)
(0.790169 20.0005 0)
(0.790169 20.0005 0)
(0.790169 20.0005 0)
(0.790169 20.0005 0)
(0.79017 20.0005 0)
(0.79017 20.0005 0)
(0.79017 20.0005 0)
(0.79017 20.0005 0)
(0.79017 20.0005 0)
(0.79017 20.0005 0)
(0.79017 20.0005 0)
(0.79017 20.0005 0)
(0.79017 20.0005 0)
(0.79017 20.0005 0)
(0.790169 20.0005 0)
(0.790169 20.0005 0)
(0.79017 20.0005 0)
(0.79017 20.0005 0)
(0.790171 20.0005 0)
(0.790172 20.0005 0)
(0.790174 20.0005 0)
(0.790177 20.0005 0)
(0.790182 20.0005 0)
(0.790189 20.0004 0)
(0.790201 20.0004 0)
(0.790218 20.0004 0)
(0.790246 20.0003 0)
(0.79029 20.0002 0)
(0.790364 20.0001 0)
(0.790486 19.9999 0)
(0.790702 19.9996 0)
(0.791088 19.9992 0)
(0.791821 19.9987 0)
(0.793165 19.998 0)
(0.795751 19.9974 0)
(0.799736 19.9972 0)
(0.805976 19.9971 0)
(0.52669 19.4052 0)
(0.550285 19.5024 0)
(0.604577 19.6034 0)
(0.642792 19.6874 0)
(0.66634 19.7544 0)
(0.679978 19.8074 0)
(0.68835 19.8495 0)
(0.69423 19.8829 0)
(0.698638 19.9092 0)
(0.70215 19.93 0)
(0.704967 19.9463 0)
(0.707243 19.959 0)
(0.709069 19.969 0)
(0.710526 19.9767 0)
(0.711678 19.9826 0)
(0.712582 19.9872 0)
(0.713285 19.9906 0)
(0.713827 19.9933 0)
(0.714242 19.9952 0)
(0.714557 19.9967 0)
(0.714794 19.9977 0)
(0.714971 19.9985 0)
(0.715103 19.9991 0)
(0.7152 19.9995 0)
(0.715271 19.9998 0)
(0.715323 20 0)
(0.71536 20.0002 0)
(0.715387 20.0003 0)
(0.715407 20.0003 0)
(0.71542 20.0004 0)
(0.71543 20.0004 0)
(0.715437 20.0004 0)
(0.715442 20.0005 0)
(0.715445 20.0005 0)
(0.715448 20.0005 0)
(0.715449 20.0005 0)
(0.715451 20.0005 0)
(0.715451 20.0005 0)
(0.715452 20.0005 0)
(0.715452 20.0005 0)
(0.715453 20.0005 0)
(0.715453 20.0005 0)
(0.715453 20.0005 0)
(0.715453 20.0005 0)
(0.715453 20.0005 0)
(0.715454 20.0005 0)
(0.715454 20.0005 0)
(0.715454 20.0005 0)
(0.715454 20.0005 0)
(0.715454 20.0005 0)
(0.715454 20.0005 0)
(0.715454 20.0005 0)
(0.715454 20.0005 0)
(0.715454 20.0005 0)
(0.715453 20.0005 0)
(0.715453 20.0005 0)
(0.715453 20.0005 0)
(0.715453 20.0005 0)
(0.715453 20.0005 0)
(0.715453 20.0005 0)
(0.715453 20.0005 0)
(0.715453 20.0005 0)
(0.715453 20.0005 0)
(0.715453 20.0005 0)
(0.715453 20.0005 0)
(0.715453 20.0005 0)
(0.715453 20.0005 0)
(0.715454 20.0005 0)
(0.715454 20.0005 0)
(0.715454 20.0005 0)
(0.715454 20.0005 0)
(0.715454 20.0005 0)
(0.715454 20.0005 0)
(0.715454 20.0005 0)
(0.715454 20.0005 0)
(0.715454 20.0005 0)
(0.715453 20.0005 0)
(0.715453 20.0005 0)
(0.715453 20.0005 0)
(0.715454 20.0005 0)
(0.715454 20.0005 0)
(0.715455 20.0005 0)
(0.715456 20.0005 0)
(0.715458 20.0005 0)
(0.715461 20.0005 0)
(0.715466 20.0005 0)
(0.715473 20.0004 0)
(0.715485 20.0004 0)
(0.715502 20.0004 0)
(0.71553 20.0003 0)
(0.715575 20.0002 0)
(0.715648 20.0001 0)
(0.715773 19.9998 0)
(0.715994 19.9995 0)
(0.71639 19.999 0)
(0.717145 19.9983 0)
(0.71853 19.9974 0)
(0.721193 19.9964 0)
(0.725278 19.9954 0)
(0.731602 19.9947 0)
(0.468209 19.3739 0)
(0.487631 19.4661 0)
(0.535739 19.5713 0)
(0.570875 19.6629 0)
(0.593186 19.7361 0)
(0.606219 19.7936 0)
(0.614289 19.8388 0)
(0.619945 19.8744 0)
(0.624186 19.9026 0)
(0.627562 19.9248 0)
(0.63027 19.9422 0)
(0.63246 19.9559 0)
(0.634219 19.9666 0)
(0.635623 19.9749 0)
(0.636735 19.9812 0)
(0.637607 19.9861 0)
(0.638287 19.9899 0)
(0.638812 19.9927 0)
(0.639213 19.9948 0)
(0.639519 19.9963 0)
(0.639749 19.9975 0)
(0.639922 19.9983 0)
(0.64005 19.999 0)
(0.640145 19.9994 0)
(0.640214 19.9997 0)
(0.640265 20 0)
(0.640302 20.0001 0)
(0.640328 20.0002 0)
(0.640347 20.0003 0)
(0.640361 20.0004 0)
(0.64037 20.0004 0)
(0.640377 20.0004 0)
(0.640382 20.0004 0)
(0.640386 20.0005 0)
(0.640388 20.0005 0)
(0.64039 20.0005 0)
(0.640391 20.0005 0)
(0.640391 20.0005 0)
(0.640392 20.0005 0)
(0.640392 20.0005 0)
(0.640393 20.0005 0)
(0.640393 20.0005 0)
(0.640393 20.0005 0)
(0.640393 20.0005 0)
(0.640394 20.0005 0)
(0.640394 20.0005 0)
(0.640394 20.0005 0)
(0.640394 20.0005 0)
(0.640394 20.0005 0)
(0.640394 20.0005 0)
(0.640394 20.0005 0)
(0.640394 20.0005 0)
(0.640394 20.0005 0)
(0.640394 20.0005 0)
(0.640394 20.0005 0)
(0.640393 20.0005 0)
(0.640393 20.0005 0)
(0.640393 20.0005 0)
(0.640393 20.0005 0)
(0.640393 20.0005 0)
(0.640393 20.0005 0)
(0.640393 20.0005 0)
(0.640393 20.0005 0)
(0.640393 20.0005 0)
(0.640393 20.0005 0)
(0.640393 20.0005 0)
(0.640394 20.0005 0)
(0.640394 20.0005 0)
(0.640394 20.0005 0)
(0.640394 20.0005 0)
(0.640394 20.0005 0)
(0.640394 20.0005 0)
(0.640394 20.0005 0)
(0.640394 20.0005 0)
(0.640394 20.0005 0)
(0.640394 20.0005 0)
(0.640394 20.0005 0)
(0.640393 20.0005 0)
(0.640393 20.0005 0)
(0.640394 20.0005 0)
(0.640394 20.0005 0)
(0.640395 20.0005 0)
(0.640396 20.0005 0)
(0.640398 20.0005 0)
(0.640401 20.0005 0)
(0.640406 20.0004 0)
(0.640413 20.0004 0)
(0.640424 20.0004 0)
(0.640441 20.0004 0)
(0.640468 20.0003 0)
(0.640512 20.0002 0)
(0.640584 20 0)
(0.640707 19.9998 0)
(0.640927 19.9994 0)
(0.641322 19.9988 0)
(0.642078 19.998 0)
(0.643461 19.9968 0)
(0.646116 19.9953 0)
(0.650166 19.9936 0)
(0.656348 19.9922 0)
(0.410909 19.3473 0)
(0.426818 19.4344 0)
(0.468701 19.5426 0)
(0.500327 19.6408 0)
(0.520936 19.7196 0)
(0.533082 19.781 0)
(0.540663 19.8291 0)
(0.545968 19.8668 0)
(0.549947 19.8966 0)
(0.553111 19.9201 0)
(0.55565 19.9386 0)
(0.557704 19.9531 0)
(0.559354 19.9644 0)
(0.560673 19.9732 0)
(0.561718 19.98 0)
(0.562539 19.9852 0)
(0.563178 19.9891 0)
(0.563673 19.9921 0)
(0.564052 19.9944 0)
(0.56434 19.996 0)
(0.564558 19.9973 0)
(0.564721 19.9982 0)
(0.564842 19.9988 0)
(0.564932 19.9993 0)
(0.564998 19.9997 0)
(0.565046 19.9999 0)
(0.565081 20.0001 0)
(0.565107 20.0002 0)
(0.565125 20.0003 0)
(0.565138 20.0003 0)
(0.565147 20.0004 0)
(0.565154 20.0004 0)
(0.565158 20.0004 0)
(0.565162 20.0005 0)
(0.565164 20.0005 0)
(0.565166 20.0005 0)
(0.565167 20.0005 0)
(0.565167 20.0005 0)
(0.565168 20.0005 0)
(0.565168 20.0005 0)
(0.565169 20.0005 0)
(0.565169 20.0005 0)
(0.565169 20.0005 0)
(0.565169 20.0005 0)
(0.565169 20.0005 0)
(0.56517 20.0005 0)
(0.56517 20.0005 0)
(0.56517 20.0005 0)
(0.56517 20.0005 0)
(0.56517 20.0005 0)
(0.56517 20.0005 0)
(0.56517 20.0005 0)
(0.56517 20.0005 0)
(0.56517 20.0005 0)
(0.565169 20.0005 0)
(0.565169 20.0005 0)
(0.565169 20.0005 0)
(0.565169 20.0005 0)
(0.565169 20.0005 0)
(0.565169 20.0005 0)
(0.565169 20.0005 0)
(0.565169 20.0005 0)
(0.565169 20.0005 0)
(0.565169 20.0005 0)
(0.565169 20.0005 0)
(0.565169 20.0005 0)
(0.565169 20.0005 0)
(0.56517 20.0005 0)
(0.56517 20.0005 0)
(0.56517 20.0005 0)
(0.56517 20.0005 0)
(0.56517 20.0005 0)
(0.56517 20.0005 0)
(0.56517 20.0005 0)
(0.56517 20.0005 0)
(0.56517 20.0005 0)
(0.565169 20.0005 0)
(0.565169 20.0005 0)
(0.565169 20.0005 0)
(0.565169 20.0005 0)
(0.56517 20.0005 0)
(0.565171 20.0005 0)
(0.565172 20.0005 0)
(0.565174 20.0005 0)
(0.565177 20.0005 0)
(0.565181 20.0004 0)
(0.565188 20.0004 0)
(0.565198 20.0004 0)
(0.565215 20.0003 0)
(0.56524 20.0003 0)
(0.565282 20.0001 0)
(0.565351 20 0)
(0.565469 19.9997 0)
(0.565681 19.9993 0)
(0.566065 19.9986 0)
(0.566797 19.9977 0)
(0.568138 19.9963 0)
(0.570702 19.9943 0)
(0.57459 19.9917 0)
(0.58044 19.9898 0)
(0.354553 19.3247 0)
(0.367475 19.4071 0)
(0.403234 19.5174 0)
(0.43104 19.6211 0)
(0.449565 19.7047 0)
(0.460576 19.7698 0)
(0.467498 19.8204 0)
(0.472337 19.86 0)
(0.475969 19.8913 0)
(0.478852 19.9159 0)
(0.481167 19.9353 0)
(0.483039 19.9506 0)
(0.484545 19.9625 0)
(0.485749 19.9717 0)
(0.486704 19.9788 0)
(0.487454 19.9843 0)
(0.48804 19.9885 0)
(0.488492 19.9916 0)
(0.488839 19.994 0)
(0.489104 19.9958 0)
(0.489303 19.9971 0)
(0.489453 19.998 0)
(0.489565 19.9987 0)
(0.489648 19.9992 0)
(0.489708 19.9996 0)
(0.489753 19.9999 0)
(0.489785 20 0)
(0.489809 20.0002 0)
(0.489826 20.0003 0)
(0.489838 20.0003 0)
(0.489846 20.0004 0)
(0.489852 20.0004 0)
(0.489857 20.0004 0)
(0.48986 20.0004 0)
(0.489862 20.0005 0)
(0.489863 20.0005 0)
(0.489864 20.0005 0)
(0.489865 20.0005 0)
(0.489866 20.0005 0)
(0.489866 20.0005 0)
(0.489866 20.0005 0)
(0.489866 20.0005 0)
(0.489867 20.0005 0)
(0.489867 20.0005 0)
(0.489867 20.0005 0)
(0.489867 20.0005 0)
(0.489867 20.0005 0)
(0.489867 20.0005 0)
(0.489867 20.0005 0)
(0.489867 20.0005 0)
(0.489867 20.0005 0)
(0.489867 20.0005 0)
(0.489867 20.0005 0)
(0.489867 20.0005 0)
(0.489867 20.0005 0)
(0.489867 20.0005 0)
(0.489867 20.0005 0)
(0.489867 20.0005 0)
(0.489867 20.0005 0)
(0.489866 20.0005 0)
(0.489866 20.0005 0)
(0.489866 20.0005 0)
(0.489866 20.0005 0)
(0.489866 20.0005 0)
(0.489867 20.0005 0)
(0.489867 20.0005 0)
(0.489867 20.0005 0)
(0.489867 20.0005 0)
(0.489867 20.0005 0)
(0.489867 20.0005 0)
(0.489867 20.0005 0)
(0.489867 20.0005 0)
(0.489867 20.0005 0)
(0.489867 20.0005 0)
(0.489867 20.0005 0)
(0.489867 20.0005 0)
(0.489867 20.0005 0)
(0.489867 20.0005 0)
(0.489867 20.0005 0)
(0.489867 20.0005 0)
(0.489867 20.0005 0)
(0.489868 20.0005 0)
(0.489869 20.0005 0)
(0.489871 20.0005 0)
(0.489874 20.0005 0)
(0.489878 20.0004 0)
(0.489884 20.0004 0)
(0.489894 20.0004 0)
(0.489909 20.0003 0)
(0.489932 20.0002 0)
(0.48997 20.0001 0)
(0.490035 19.9999 0)
(0.490145 19.9996 0)
(0.490343 19.9992 0)
(0.490703 19.9985 0)
(0.491391 19.9974 0)
(0.492647 19.9957 0)
(0.495043 19.9932 0)
(0.498653 19.99 0)
(0.504013 19.9875 0)
(0.298938 19.3059 0)
(0.309284 19.3841 0)
(0.339091 19.4958 0)
(0.362862 19.604 0)
(0.378995 19.6919 0)
(0.38866 19.76 0)
(0.394772 19.8128 0)
(0.399044 19.8541 0)
(0.402251 19.8866 0)
(0.404794 19.9123 0)
(0.406836 19.9325 0)
(0.408488 19.9484 0)
(0.409818 19.9608 0)
(0.410881 19.9704 0)
(0.411725 19.9778 0)
(0.412388 19.9835 0)
(0.412906 19.9879 0)
(0.413307 19.9912 0)
(0.413614 19.9937 0)
(0.413848 19.9955 0)
(0.414026 19.9969 0)
(0.414158 19.9979 0)
(0.414258 19.9986 0)
(0.414331 19.9992 0)
(0.414385 19.9995 0)
(0.414425 19.9998 0)
(0.414454 20 0)
(0.414475 20.0002 0)
(0.41449 20.0003 0)
(0.414501 20.0003 0)
(0.414508 20.0004 0)
(0.414514 20.0004 0)
(0.414518 20.0004 0)
(0.41452 20.0004 0)
(0.414522 20.0005 0)
(0.414524 20.0005 0)
(0.414525 20.0005 0)
(0.414525 20.0005 0)
(0.414526 20.0005 0)
(0.414526 20.0005 0)
(0.414526 20.0005 0)