/*--------------------------------*- C++ -*----------------------------------*\
| =========                 |                                                 |
| \\      /  F ield         | OpenFOAM: The Open Source CFD Toolbox           |
|  \\    /   O peration     | Version:  v1906                                 |
|   \\  /    A nd           | Web:      www.OpenFOAM.com                      |
|    \\/     M anipulation  |                                                 |
\*---------------------------------------------------------------------------*/
FoamFile
{
    version     2.0;
    format      ascii;
    class       volScalarField;
    location    "1";
    object      p;
}
// * * * * * * * * * * * * * * * * * * * * * * * * * * * * * * * * * * * * * //

dimensions      [0 2 -2 0 0 0 0];


internalField   nonuniform List<scalar> 
4000
(
627.171
600.388
594.795
587.025
580.306
573.319
566.606
559.967
553.471
547.063
540.737
534.473
528.26
522.086
515.945
509.829
503.734
497.654
491.586
485.528
479.477
473.431
467.389
461.351
455.315
449.281
443.248
437.215
431.184
425.152
419.122
413.091
407.061
401.03
395
388.97
382.94
376.909
370.879
364.849
358.819
352.789
346.759
340.729
334.699
328.668
322.638
316.608
310.578
304.548
298.518
292.488
286.458
280.428
274.397
268.367
262.337
256.307
250.277
244.247
238.217
232.187
226.156
220.126
214.096
208.066
202.036
196.005
189.975
183.945
177.915
171.885
165.854
159.824
153.794
147.763
141.733
135.703
129.673
123.642
117.612
111.582
105.552
99.5213
93.4912
87.4611
81.4311
75.4014
69.3719
63.3428
57.3144
51.2871
45.2613
39.2377
33.2172
27.1997
21.1876
15.1751
9.20142
3.20506
621.777
600.441
594.661
586.753
580.019
573.025
566.314
559.675
553.179
546.769
540.443
534.178
527.964
521.79
515.649
509.533
503.437
497.357
491.289
485.231
479.18
473.134
467.092
461.054
455.018
448.983
442.95
436.918
430.886
424.855
418.824
412.794
406.763
400.733
394.703
388.672
382.642
376.612
370.582
364.552
358.522
352.491
346.461
340.431
334.401
328.371
322.341
316.311
310.281
304.251
298.221
292.19
286.16
280.13
274.1
268.07
262.04
256.01
249.98
243.95
237.919
231.889
225.859
219.829
213.799
207.769
201.738
195.708
189.678
183.648
177.617
171.587
165.557
159.527
153.496
147.466
141.436
135.405
129.375
123.345
117.315
111.284
105.254
99.224
93.1938
87.1637
81.1338
75.104
69.0745
63.0455
57.0171
50.9897
44.9639
38.9403
32.9198
26.9024
20.8909
14.8797
8.90908
2.92915
618.269
600.466
594.579
586.579
579.838
572.832
566.121
559.48
552.983
546.572
540.246
533.98
527.765
521.591
515.449
509.333
503.237
497.157
491.089
485.03
478.979
472.933
466.891
460.853
454.817
448.782
442.749
436.717
430.685
424.654
418.623
412.593
406.562
400.532
394.502
388.471
382.441
376.411
370.381
364.351
358.321
352.291
346.26
340.23
334.2
328.17
322.14
316.11
310.08
304.05
298.02
291.989
285.959
279.929
273.899
267.869
261.839
255.809
249.779
243.749
237.718
231.688
225.658
219.628
213.598
207.568
201.537
195.507
189.477
183.447
177.416
171.386
165.356
159.326
153.295
147.265
141.235
135.205
129.174
123.144
117.114
111.083
105.053
99.023
92.9929
86.9628
80.9328
74.903
68.8735
62.8445
56.8161
50.7887
44.7629
38.7393
32.7188
26.7015
20.6903
14.6801
8.71266
2.74453
616.367
600.587
594.589
586.552
579.802
572.785
566.072
559.428
552.931
546.519
540.192
533.925
527.71
521.536
515.394
509.277
503.181
497.1
491.032
484.973
478.922
472.876
466.835
460.796
454.76
448.726
442.692
436.66
430.628
424.597
418.566
412.536
406.505
400.475
394.445
388.414
382.384
376.354
370.324
364.294
358.264
352.234
346.203
340.173
334.143
328.113
322.083
316.053
310.023
303.993
297.963
291.932
285.902
279.872
273.842
267.812
261.782
255.752
249.722
243.692
237.661
231.631
225.601
219.571
213.541
207.511
201.48
195.45
189.42
183.39
177.359
171.329
165.299
159.269
153.238
147.208
141.178
135.148
129.117
123.087
117.057
111.027
104.996
98.9661
92.9359
86.9058
80.8759
74.8461
68.8166
62.7875
56.7591
50.7317
44.7059
38.6822
32.6618
26.6445
20.6337
14.6233
8.65607
2.68973
615.072
600.759
594.664
586.612
579.846
572.818
566.104
559.457
552.959
546.546
540.218
533.951
527.736
521.561
515.419
509.302
503.205
497.125
491.056
484.998
478.946
472.9
466.859
460.82
454.784
448.75
442.716
436.684
430.652
424.621
418.59
412.56
406.529
400.499
394.469
388.439
382.408
376.378
370.348
364.318
358.288
352.258
346.228
340.197
334.167
328.137
322.107
316.077
310.047
304.017
297.987
291.956
285.926
279.896
273.866
267.836
261.806
255.776
249.746
243.716
237.686
231.655
225.625
219.595
213.565
207.535
201.504
195.474
189.444
183.414
177.384
171.353
165.323
159.293
153.262
147.232
141.202
135.172
129.141
123.111
117.081
111.051
105.02
98.9901
92.96
86.9299
80.8999
74.8701
68.8406
62.8115
56.7831
50.7557
44.7298
38.7062
32.6857
26.6686
20.658
14.6474
8.67846
2.70796
614.026
600.923
594.766
586.706
579.922
572.882
566.166
559.517
553.019
546.605
540.276
534.009
527.793
521.618
515.475
509.358
503.261
497.18
491.112
485.053
479.002
472.956
466.914
460.876
454.84
448.805
442.772
436.74
430.708
424.677
418.646
412.615
406.585
400.555
394.524
388.494
382.464
376.434
370.404
364.373
358.343
352.313
346.283
340.253
334.223
328.193
322.163
316.132
310.102
304.072
298.042
292.012
285.982
279.952
273.922
267.892
261.862
255.831
249.801
243.771
237.741
231.711
225.681
219.651
213.62
207.59
201.56
195.53
189.5
183.469
177.439
171.409
165.379
159.348
153.318
147.288
141.257
135.227
129.197
123.167
117.136
111.106
105.076
99.0456
93.0155
86.9854
80.9554
74.9256
68.8961
62.867
56.8386
50.8112
44.7853
38.7616
32.7412
26.7243
20.7136
14.7035
8.73122
2.75456
613.157
601.058
594.873
586.813
580.006
572.956
566.238
559.587
553.088
546.674
540.344
534.076
527.86
521.684
515.541
509.424
503.327
497.246
491.178
485.119
479.068
473.022
466.98
460.942
454.905
448.871
442.838
436.805
430.774
424.743
418.712
412.681
406.651
400.62
394.59
388.56
382.53
376.499
370.469
364.439
358.409
352.379
346.349
340.319
334.289
328.258
322.228
316.198
310.168
304.138
298.108
292.078
286.048
280.018
273.987
267.957
261.927
255.897
249.867
243.837
237.807
231.777
225.746
219.716
213.686
207.656
201.626
195.595
189.565
183.535
177.505
171.475
165.444
159.414
153.384
147.353
141.323
135.293
129.263
123.232
117.202
111.172
105.142
99.1114
93.0812
87.0511
81.0211
74.9913
68.9618
62.9327
56.9043
50.8769
44.851
38.8273
32.8068
26.7901
20.7796
14.7702
8.79326
2.80996
612.429
601.163
594.975
586.921
580.091
573.031
566.31
559.658
553.158
546.743
540.414
534.145
527.929
521.753
515.61
509.492
503.395
497.314
491.246
485.187
479.135
473.089
467.048
461.009
454.973
448.938
442.905
436.873
430.841
424.81
418.779
412.749
406.718
400.688
394.658
388.627
382.597
376.567
370.537
364.507
358.477
352.446
346.416
340.386
334.356
328.326
322.296
316.266
310.236
304.205
298.175
292.145
286.115
280.085
274.055
268.025
261.995
255.965
249.935
243.904
237.874
231.844
225.814
219.784
213.754
207.723
201.693
195.663
189.633
183.603
177.572
171.542
165.512
159.481
153.451
147.421
141.391
135.36
129.33
123.3
117.27
111.239
105.209
99.1789
93.1487
87.1186
81.0886
75.0588
69.0293
63.0002
56.9718
50.9443
44.9184
38.8947
32.8743
26.8578
20.8474
14.839
8.85655
2.86666
611.813
601.241
595.07
587.027
580.173
573.103
566.379
559.726
553.226
546.811
540.481
534.212
527.995
521.819
515.676
509.558
503.461
497.38
491.311
485.252
479.201
473.155
467.113
461.074
455.038
449.004
442.971
436.938
430.907
424.875
418.845
412.814
406.783
400.753
394.723
388.693
382.662
376.632
370.602
364.572
358.542
352.512
346.482
340.452
334.421
328.391
322.361
316.331
310.301
304.271
298.241
292.211
286.181
280.15
274.12
268.09
262.06
256.03
250
243.97
237.94
231.909
225.879
219.849
213.819
207.789
201.759
195.728
189.698
183.668
177.638
171.607
165.577
159.547
153.517
147.486
141.456
135.426
129.395
123.365
117.335
111.305
105.274
99.2442
93.2141
87.184
81.154
75.1242
69.0946
63.0655
57.0371
51.0096
44.9837
38.96
32.9396
26.9234
20.9131
14.9059
8.91756
2.92136
611.286
601.296
595.155
587.127
580.249
573.17
566.443
559.789
553.289
546.874
540.543
534.274
528.057
521.881
515.737
509.62
503.522
497.441
491.373
485.314
479.262
473.216
467.174
461.136
455.1
449.065
443.032
437
430.968
424.937
418.906
412.875
406.845
400.814
394.784
388.754
382.724
376.694
370.663
364.633
358.603
352.573
346.543
340.513
334.483
328.453
322.422
316.392
310.362
304.332
298.302
292.272
286.242
280.212
274.182
268.151
262.121
256.091
250.061
244.031
238.001
231.971
225.941
219.91
213.88
207.85
201.82
195.79
189.759
183.729
177.699
171.669
165.638
159.608
153.578
147.548
141.517
135.487
129.457
123.426
117.396
111.366
105.336
99.3055
93.2753
87.2452
81.2152
75.1854
69.1559
63.1268
57.0983
51.0708
45.0449
39.0212
33.0008
26.9849
20.9747
14.969
8.97456
2.97247
610.835
601.333
595.231
587.219
580.32
573.232
566.502
559.847
553.347
546.931
540.601
534.331
528.114
521.938
515.794
509.676
503.579
497.498
491.429
485.37
479.318
473.272
467.231
461.192
455.156
449.121
443.088
437.056
431.024
424.993
418.962
412.931
406.901
400.871
394.84
388.81
382.78
376.75
370.72
364.69
358.659
352.629
346.599
340.569
334.539
328.509
322.479
316.449
310.418
304.388
298.358
292.328
286.298
280.268
274.238
268.208
262.178
256.148
250.117
244.087
238.057
232.027
225.997
219.967
213.936
207.906
201.876
195.846
189.816
183.785
177.755
171.725
165.695
159.664
153.634
147.604
141.574
135.543
129.513
123.483
117.452
111.422
105.392
99.3618
93.3316
87.3015
81.2715
75.2417
69.2121
63.183
57.1545
51.1271
45.1011
39.0775
33.057
27.0414
21.0313
15.0273
9.02679
3.0193
610.45
601.356
595.298
587.304
580.383
573.288
566.555
559.899
553.399
546.983
540.653
534.383
528.166
521.989
515.845
509.727
503.63
497.549
491.48
485.421
479.369
473.323
467.281
461.243
455.207
449.172
443.139
437.107
431.075
425.044
419.013
412.982
406.952
400.922
394.891
388.861
382.831
376.801
370.771
364.74
358.71
352.68
346.65
340.62
334.59
328.56
322.53
316.499
310.469
304.439
298.409
292.379
286.349
280.319
274.289
268.259
262.229
256.198
250.168
244.138
238.108
232.078
226.048
220.018
213.987
207.957
201.927
195.897
189.867
183.836
177.806
171.776
165.746
159.715
153.685
147.655
141.624
135.594
129.564
123.534
117.503
111.473
105.443
99.4127
93.3825
87.3524
81.3224
75.2926
69.263
63.2339
57.2054
51.178
45.152
39.1283
33.1079
27.0926
21.0825
15.0802
9.07393
3.06156
610.124
601.369
595.355
587.38
580.44
573.337
566.602
559.945
553.446
547.029
540.699
534.429
528.212
522.035
515.891
509.773
503.676
497.594
491.525
485.466
479.415
473.369
467.327
461.288
455.252
449.218
443.184
437.152
431.12
425.089
419.058
413.028
406.997
400.967
394.937
388.906
382.876
376.846
370.816
364.786
358.756
352.726
346.695
340.665
334.635
328.605
322.575
316.545
310.515
304.485
298.454
292.424
286.394
280.364
274.334
268.304
262.274
256.244
250.214
244.184
238.153
232.123
226.093
220.063
214.033
208.003
201.972
195.942
189.912
183.882
177.851
171.821
165.791
159.761
153.73
147.7
141.67
135.64
129.609
123.579
117.549
111.518
105.488
99.458
93.4278
87.3977
81.3677
75.3379
69.3084
63.2792
57.2507
51.2233
45.1973
39.1737
33.1532
27.1382
21.1282
15.1277
9.11587
3.09916
609.85
601.374
595.404
587.447
580.49
573.381
566.643
559.986
553.486
547.07
540.739
534.469
528.252
522.075
515.931
509.813
503.715
497.634
491.565
485.506
479.454
473.408
467.367
461.328
455.292
449.257
443.224
437.192
431.16
425.129
419.098
413.067
407.037
401.007
394.976
388.946
382.916
376.886
370.856
364.826
358.795
352.765
346.735
340.705
334.675
328.645
322.615
316.585
310.554
304.524
298.494
292.464
286.434
280.404
274.374
268.344
262.314
256.284
250.253
244.223
238.193
232.163
226.133
220.103
214.072
208.042
202.012
195.982
189.952
183.921
177.891
171.861
165.831
159.8
153.77
147.74
141.71
135.679
129.649
123.619
117.588
111.558
105.528
99.4977
93.4676
87.4375
81.4075
75.3776
69.3481
63.3189
57.2905
51.263
45.237
39.2134
33.1929
27.1782
21.1683
15.1694
9.15257
3.13205
609.623
601.375
595.445
587.504
580.533
573.418
566.678
560.02
553.521
547.104
540.774
534.504
528.286
522.109
515.965
509.847
503.749
497.668
491.599
485.54
479.488
473.442
467.401
461.362
455.326
449.291
443.258
437.226
431.194
425.163
419.132
413.102
407.071
401.041
395.01
388.98
382.95
376.92
370.89
364.86
358.829
352.799
346.769
340.739
334.709
328.679
322.649
316.619
310.588
304.558
298.528
292.498
286.468
280.438
274.408
268.378
262.348
256.318
250.287
244.257
238.227
232.197
226.167
220.137
214.107
208.076
202.046
196.016
189.986
183.955
177.925
171.895
165.865
159.834
153.804
147.774
141.744
135.713
129.683
123.653
117.623
111.592
105.562
99.5318
93.5016
87.4715
81.4415
75.4117
69.3821
63.353
57.3245
51.297
45.271
39.2474
33.2269
27.2125
21.2026
15.2053
9.18401
3.16023
609.44
601.373
595.478
587.553
580.569
573.449
566.707
560.049
553.549
547.133
540.802
534.532
528.315
522.138
515.994
509.875
503.778
497.697
491.628
485.569
479.517
473.471
467.429
461.39
455.354
449.32
443.287
437.254
431.223
425.191
419.161
413.13
407.099
401.069
395.039
389.009
382.978
376.948
370.918
364.888
358.858
352.828
346.798
340.767
334.737
328.707
322.677
316.647
310.617
304.587
298.557
292.527
286.496
280.466
274.436
268.406
262.376
256.346
250.316
244.286
238.256
232.225
226.195
220.165
214.135
208.105
202.075
196.044
190.014
183.984
177.954
171.923
165.893
159.863
153.833
147.802
141.772
135.742
129.711
123.681
117.651
111.621
105.59
99.5602
93.53
87.4999
81.4699
75.4401
69.4105
63.3814
57.3529
51.3254
45.2994
39.2758
33.2553
27.2412
21.2313
15.2353
9.21021
3.18371
609.297
601.37
595.504
587.591
580.598
573.474
566.73
560.072
553.572
547.156
540.825
534.555
528.338
522.16
516.016
509.898
503.801
497.719
491.65
485.591
479.54
473.494
467.452
461.413
455.377
449.342
443.309
437.277
431.245
425.214
419.183
413.153
407.122
401.092
395.062
389.031
383.001
376.971
370.941
364.911
358.881
352.85
346.82
340.79
334.76
328.73
322.7
316.67
310.64
304.609
298.579
292.549
286.519
280.489
274.459
268.429
262.399
256.369
250.339
244.308
238.278
232.248
226.218
220.188
214.158
208.127
202.097
196.067
190.037
184.007
177.976
171.946
165.916
159.885
153.855
147.825
141.795
135.764
129.734
123.704
117.674
111.643
105.613
99.5829
93.5527
87.5226
81.4926
75.4628
69.4332
63.4041
57.3756
51.3481
45.3221
39.2985
33.278
27.2641
21.2542
15.2594
9.23116
3.20249
609.191
601.366
595.524
587.62
580.619
573.493
566.748
560.089
553.59
547.173
540.843
534.572
528.355
522.178
516.033
509.915
503.818
497.736
491.667
485.608
479.557
473.511
467.469
461.43
455.394
449.359
443.326
437.294
431.262
425.231
419.2
413.17
407.139
401.109
395.079
389.048
383.018
376.988
370.958
364.928
358.898
352.868
346.837
340.807
334.777
328.747
322.717
316.687
310.657
304.627
298.596
292.566
286.536
280.506
274.476
268.446
262.416
256.386
250.356
244.326
238.295
232.265
226.235
220.205
214.175
208.144
202.114
196.084
190.054
184.024
177.993
171.963
165.933
159.903
153.872
147.842
141.812
135.781
129.751
123.721
117.691
111.66
105.63
99.6
93.5698
87.5397
81.5097
75.4798
69.4503
63.4211
57.3926
51.3651
45.3391
39.3155
33.2951
27.2812
21.2714
15.2775
9.24687
3.21657
609.122
601.364
595.536
587.639
580.633
573.505
566.759
560.1
553.601
547.185
540.854
534.584
528.366
522.189
516.045
509.927
503.829
497.748
491.679
485.62
479.568
473.522
467.48
461.442
455.405
449.371
443.338
437.305
431.274
425.243
419.212
413.181
407.151
401.12
395.09
389.06
383.03
376.999
370.969
364.939
358.909
352.879
346.849
340.819
334.788
328.758
322.728
316.698
310.668
304.638
298.608
292.578
286.548
280.518
274.487
268.457
262.427
256.397
250.367
244.337
238.307
232.277
226.246
220.216
214.186
208.156
202.126
196.095
190.065
184.035
178.005
171.974
165.944
159.914
153.884
147.853
141.823
135.793
129.763
123.732
117.702
111.672
105.642
99.6113
93.5812
87.551
81.521
75.4912
69.4616
63.4325
57.404
51.3765
45.3504
39.3269
33.3064
27.2927
21.2829
15.2895
9.25734
3.22595
609.087
601.362
595.543
587.649
580.641
573.511
566.765
560.106
553.607
547.191
540.86
534.59
528.372
522.195
516.051
509.932
503.835
497.753
491.685
485.625
479.574
473.528
467.486
461.447
455.411
449.377
443.343
437.311
431.279
425.248
419.217
413.187
407.156
401.126
395.096
389.065
383.035
377.005
370.975
364.945
358.915
352.885
346.854
340.824
334.794
328.764
322.734
316.704
310.674
304.644
298.613
292.583
286.553
280.523
274.493
268.463
262.433
256.403
250.373
244.343
238.312
232.282
226.252
220.222
214.192
208.162
202.131
196.101
190.071
184.041
178.01
171.98
165.95
159.92
153.889
147.859
141.829
135.799
129.768
123.738
117.708
111.677
105.647
99.617
93.5868
87.5567
81.5267
75.4969
69.4673
63.4382
57.4097
51.3822
45.3561
39.3326
33.3121
27.2984
21.2886
15.2956
9.26258
3.23064
609.087
601.362
595.543
587.649
580.641
573.511
566.765
560.106
553.607
547.191
540.86
534.59
528.372
522.195
516.051
509.932
503.835
497.753
491.685
485.625
479.574
473.528
467.486
461.447
455.411
449.377
443.343
437.311
431.279
425.248
419.217
413.187
407.156
401.126
395.096
389.065
383.035
377.005
370.975
364.945
358.915
352.885
346.854
340.824
334.794
328.764
322.734
316.704
310.674
304.644
298.613
292.583
286.553
280.523
274.493
268.463
262.433
256.403
250.373
244.343
238.312
232.282
226.252
220.222
214.192
208.162
202.131
196.101
190.071
184.041
178.01
171.98
165.95
159.92
153.889
147.859
141.829
135.799
129.768
123.738
117.708
111.677
105.647
99.617
93.5868
87.5567
81.5267
75.4969
69.4673
63.4382
57.4097
51.3822
45.3561
39.3326
33.3121
27.2984
21.2886
15.2956
9.26257
3.23064
609.122
601.364
595.536
587.639
580.633
573.505
566.759
560.1
553.601
547.185
540.854
534.584
528.366
522.189
516.045
509.927
503.829
497.748
491.679
485.62
479.568
473.522
467.48
461.442
455.405
449.371
443.338
437.305
431.274
425.243
419.212
413.181
407.151
401.12
395.09
389.06
383.03
376.999
370.969
364.939
358.909
352.879
346.849
340.819
334.788
328.758
322.728
316.698
310.668
304.638
298.608
292.578
286.548
280.518
274.487
268.457
262.427
256.397
250.367
244.337
238.307
232.277
226.246
220.216
214.186
208.156
202.126
196.095
190.065
184.035
178.005
171.974
165.944
159.914
153.884
147.853
141.823
135.793
129.763
123.732
117.702
111.672
105.642
99.6113
93.5812
87.551
81.521
75.4912
69.4616
63.4325
57.404
51.3765
45.3504
39.3269
33.3064
27.2927
21.2829
15.2895
9.25734
3.22595
609.191
601.366
595.524
587.62
580.619
573.493
566.748
560.089
553.59
547.173
540.843
534.572
528.355
522.178
516.033
509.915
503.818
497.736
491.667
485.608
479.557
473.511
467.469
461.43
455.394
449.359
443.326
437.294
431.262
425.231
419.2
413.17
407.139
401.109
395.079
389.048
383.018
376.988
370.958
364.928
358.898
352.868
346.837
340.807
334.777
328.747
322.717
316.687
310.657
304.627
298.596
292.566
286.536
280.506
274.476
268.446
262.416
256.386
250.356
244.326
238.295
232.265
226.235
220.205
214.175
208.144
202.114
196.084
190.054
184.024
177.993
171.963
165.933
159.903
153.872
147.842
141.812
135.781
129.751
123.721
117.691
111.66
105.63
99.6
93.5698
87.5397
81.5097
75.4798
69.4503
63.4211
57.3926
51.3651
45.3391
39.3155
33.295
27.2812
21.2714
15.2775
9.24686
3.21656
609.297
601.37
595.504
587.591
580.598
573.474
566.73
560.072
553.572
547.156
540.825
534.555
528.338
522.16
516.016
509.898
503.801
497.719
491.65
485.591
479.54
473.493
467.452
461.413
455.377
449.342
443.309
437.277
431.245
425.214
419.183
413.153
407.122
401.092
395.062
389.031
383.001
376.971
370.941
364.911
358.881
352.85
346.82
340.79
334.76
328.73
322.7
316.67
310.64
304.61
298.579
292.549
286.519
280.489
274.459
268.429
262.399
256.369
250.339
244.308
238.278
232.248
226.218
220.188
214.158
208.127
202.097
196.067
190.037
184.006
177.976
171.946
165.916
159.885
153.855
147.825
141.795
135.764
129.734
123.704
117.674
111.643
105.613
99.5829
93.5528
87.5226
81.4926
75.4628
69.4332
63.4041
57.3756
51.3481
45.322
39.2985
33.278
27.264
21.2542
15.2594
9.23115
3.20248
609.44
601.373
595.478
587.553
580.569
573.449
566.707
560.049
553.549
547.133
540.802
534.532
528.315
522.138
515.993
509.875
503.778
497.696
491.628
485.569
479.517
473.471
467.429
461.39
455.354
449.32
443.287
437.254
431.223
425.191
419.161
413.13
407.1
401.069
395.039
389.009
382.978
376.948
370.918
364.888
358.858
352.828
346.798
340.768
334.737
328.707
322.677
316.647
310.617
304.587
298.557
292.527
286.496
280.466
274.436
268.406
262.376
256.346
250.316
244.286
238.256
232.225
226.195
220.165
214.135
208.105
202.074
196.044
190.014
183.984
177.953
171.923
165.893
159.863
153.832
147.802
141.772
135.742
129.711
123.681
117.651
111.621
105.59
99.5602
93.53
87.4999
81.4699
75.4401
69.4105
63.3813
57.3528
51.3254
45.2993
39.2758
33.2553
27.2411
21.2313
15.2353
9.2102
3.18371
609.623
601.375
595.445
587.504
580.533
573.418
566.678
560.02
553.521
547.104
540.774
534.504
528.286
522.109
515.965
509.847
503.749
497.668
491.599
485.54
479.488
473.442
467.401
461.362
455.326
449.291
443.258
437.226
431.194
425.163
419.132
413.102
407.071
401.041
395.01
388.98
382.95
376.92
370.89
364.86
358.83
352.799
346.769
340.739
334.709
328.679
322.649
316.619
310.588
304.558
298.528
292.498
286.468
280.438
274.408
268.378
262.348
256.318
250.288
244.257
238.227
232.197
226.167
220.137
214.106
208.076
202.046
196.016
189.986
183.955
177.925
171.895
165.865
159.834
153.804
147.774
141.744
135.713
129.683
123.653
117.623
111.592
105.562
99.5318
93.5016
87.4715
81.4415
75.4117
69.3821
63.3529
57.3245
51.297
45.2709
39.2474
33.2269
27.2125
21.2026
15.2052
9.184
3.16023
609.85
601.374
595.404
587.447
580.49
573.381
566.643
559.985
553.486
547.07
540.739
534.469
528.252
522.075
515.931
509.813
503.715
497.634
491.565
485.506
479.454
473.408
467.367
461.328
455.292
449.257
443.224
437.192
431.16
425.129
419.098
413.068
407.037
401.007
394.976
388.946
382.916
376.886
370.856
364.826
358.795
352.765
346.735
340.705
334.675
328.645
322.615
316.585
310.554
304.524
298.494
292.464
286.434
280.404
274.374
268.344
262.314
256.284
250.253
244.223
238.193
232.163
226.133
220.103
214.072
208.042
202.012
195.982
189.951
183.921
177.891
171.861
165.831
159.8
153.77
147.74
141.71
135.679
129.649
123.619
117.588
111.558
105.528
99.4977
93.4676
87.4374
81.4074
75.3776
69.348
63.3189
57.2904
51.2629
45.2369
39.2133
33.1929
27.1782
21.1682
15.1693
9.15255
3.13204
610.124
601.369
595.355
587.38
580.44
573.337
566.602
559.945
553.445
547.029
540.699
534.429
528.211
522.035
515.891
509.773
503.675
497.594
491.525
485.466
479.415
473.369
467.327
461.288
455.252
449.218
443.184
437.152
431.12
425.089
419.058
413.028
406.997
400.967
394.937
388.907
382.876
376.846
370.816
364.786
358.756
352.726
346.695
340.665
334.635
328.605
322.575
316.545
310.515
304.485
298.455
292.424
286.394
280.364
274.334
268.304
262.274
256.244
250.214
244.184
238.153
232.123
226.093
220.063
214.033
208.002
201.972
195.942
189.912
183.882
177.851
171.821
165.791
159.761
153.73
147.7
141.67
135.64
129.609
123.579
117.549
111.518
105.488
99.458
93.4278
87.3977
81.3677
75.3379
69.3083
63.2792
57.2507
51.2232
45.1972
39.1736
33.1532
27.1382
21.1282
15.1276
9.11585
3.09915
610.45
601.356
595.298
587.304
580.383
573.288
566.555
559.899
553.399
546.983
540.653
534.383
528.166
521.989
515.845
509.727
503.63
497.549
491.48
485.421
479.369
473.323
467.281
461.243
455.207
449.172
443.139
437.107
431.075
425.044
419.013
412.982
406.952
400.922
394.891
388.861
382.831
376.801
370.771
364.741
358.71
352.68
346.65
340.62
334.59
328.56
322.53
316.499
310.469
304.439
298.409
292.379
286.349
280.319
274.289
268.259
262.229
256.198
250.168
244.138
238.108
232.078
226.048
220.018
213.987
207.957
201.927
195.897
189.866
183.836
177.806
171.776
165.745
159.715
153.685
147.655
141.624
135.594
129.564
123.534
117.503
111.473
105.443
99.4127
93.3825
87.3524
81.3224
75.2925
69.263
63.2338
57.2053
51.1779
45.1519
39.1283
33.1078
27.0926
21.0825
15.0802
9.07391
3.06155
610.835
601.333
595.231
587.219
580.32
573.232
566.502
559.847
553.347
546.931
540.601
534.331
528.114
521.938
515.794
509.676
503.579
497.498
491.429
485.37
479.318
473.272
467.231
461.192
455.156
449.121
443.088
437.056
431.024
424.993
418.962
412.932
406.901
400.871
394.84
388.81
382.78
376.75
370.72
364.69
358.659
352.629
346.599
340.569
334.539
328.509
322.479
316.449
310.418
304.388
298.358
292.328
286.298
280.268
274.238
268.208
262.178
256.148
250.117
244.087
238.057
232.027
225.997
219.967
213.936
207.906
201.876
195.846
189.815
183.785
177.755
171.725
165.695
159.664
153.634
147.604
141.574
135.543
129.513
123.483
117.453
111.422
105.392
99.3618
93.3316
87.3015
81.2715
75.2416
69.2121
63.1829
57.1545
51.127
45.101
39.0774
33.057
27.0414
21.0313
15.0273
9.02677
3.01929
611.286
601.296
595.155
587.127
580.249
573.17
566.443
559.789
553.289
546.873
540.543
534.274
528.057
521.881
515.737
509.62
503.522
497.441
491.373
485.314
479.262
473.216
467.174
461.136
455.1
449.065
443.032
437
430.968
424.937
418.906
412.875
406.845
400.814
394.784
388.754
382.724
376.694
370.664
364.633
358.603
352.573
346.543
340.513
334.483
328.453
322.422
316.392
310.362
304.332
298.302
292.272
286.242
280.212
274.182
268.152
262.121
256.091
250.061
244.031
238.001
231.971
225.941
219.91
213.88
207.85
201.82
195.789
189.759
183.729
177.699
171.668
165.638
159.608
153.578
147.548
141.517
135.487
129.457
123.426
117.396
111.366
105.336
99.3055
93.2753
87.2452
81.2152
75.1854
69.1558
63.1267
57.0982
51.0708
45.0448
39.0212
33.0007
26.9849
20.9746
14.969
8.97454
2.97246
611.813
601.241
595.07
587.027
580.173
573.103
566.379
559.725
553.226
546.811
540.481
534.212
527.995
521.819
515.675
509.558
503.461
497.38
491.311
485.252
479.201
473.155
467.113
461.074
455.038
449.004
442.971
436.938
430.907
424.876
418.845
412.814
406.784
400.753
394.723
388.693
382.663
376.632
370.602
364.572
358.542
352.512
346.482
340.452
334.421
328.391
322.361
316.331
310.301
304.271
298.241
292.211
286.181
280.15
274.12
268.09
262.06
256.03
250
243.97
237.94
231.909
225.879
219.849
213.819
207.789
201.758
195.728
189.698
183.668
177.637
171.607
165.577
159.547
153.517
147.486
141.456
135.426
129.395
123.365
117.335
111.305
105.274
99.2442
93.2141
87.184
81.1539
75.1241
69.0946
63.0654
57.037
51.0095
44.9836
38.9599
32.9395
26.9233
20.913
14.9059
8.91754
2.92135
612.429
601.163
594.975
586.921
580.091
573.031
566.31
559.658
553.158
546.743
540.414
534.145
527.929
521.753
515.609
509.492
503.395
497.314
491.246
485.187
479.135
473.089
467.048
461.009
454.973
448.938
442.905
436.873
430.841
424.81
418.779
412.749
406.718
400.688
394.658
388.627
382.597
376.567
370.537
364.507
358.477
352.446
346.416
340.386
334.356
328.326
322.296
316.266
310.236
304.205
298.175
292.145
286.115
280.085
274.055
268.025
261.995
255.965
249.935
243.904
237.874
231.844
225.814
219.784
213.754
207.723
201.693
195.663
189.633
183.602
177.572
171.542
165.512
159.481
153.451
147.421
141.391
135.36
129.33
123.3
117.27
111.239
105.209
99.1789
93.1487
87.1186
81.0886
75.0588
69.0292
63.0001
56.9717
50.9442
44.9183
38.8946
32.8742
26.8577
20.8474
14.839
8.85653
2.86665
613.157
601.058
594.873
586.813
580.006
572.956
566.238
559.587
553.088
546.674
540.344
534.076
527.86
521.684
515.541
509.424
503.327
497.246
491.178
485.119
479.068
473.022
466.98
460.942
454.905
448.871
442.838
436.805
430.774
424.743
418.712
412.681
406.651
400.62
394.59
388.56
382.53
376.5
370.469
364.439
358.409
352.379
346.349
340.319
334.289
328.258
322.228
316.198
310.168
304.138
298.108
292.078
286.048
280.018
273.988
267.957
261.927
255.897
249.867
243.837
237.807
231.777
225.746
219.716
213.686
207.656
201.626
195.595
189.565
183.535
177.505
171.474
165.444
159.414
153.384
147.353
141.323
135.293
129.263
123.232
117.202
111.172
105.142
99.1114
93.0812
87.0511
81.0211
74.9913
68.9617
62.9326
56.9042
50.8768
44.8509
38.8272
32.8068
26.79
20.7795
14.7702
8.79324
2.80995
614.026
600.923
594.766
586.706
579.922
572.882
566.166
559.517
553.019
546.605
540.276
534.009
527.793
521.617
515.475
509.358
503.261
497.18
491.112
485.053
479.002
472.956
466.914
460.876
454.84
448.805
442.772
436.74
430.708
424.677
418.646
412.615
406.585
400.555
394.524
388.494
382.464
376.434
370.404
364.374
358.343
352.313
346.283
340.253
334.223
328.193
322.163
316.132
310.102
304.072
298.042
292.012
285.982
279.952
273.922
267.892
261.862
255.831
249.801
243.771
237.741
231.711
225.681
219.651
213.62
207.59
201.56
195.53
189.499
183.469
177.439
171.409
165.378
159.348
153.318
147.288
141.257
135.227
129.197
123.167
117.136
111.106
105.076
99.0457
93.0155
86.9854
80.9554
74.9256
68.896
62.8669
56.8385
50.8111
44.7852
38.7616
32.7411
26.7242
20.7136
14.7035
8.7312
2.75455
615.072
600.759
594.664
586.612
579.846
572.818
566.104
559.457
552.959
546.546
540.218
533.951
527.736
521.561
515.418
509.302
503.205
497.125
491.056
484.998
478.946
472.9
466.859
460.82
454.784
448.75
442.716
436.684
430.653
424.621
418.591
412.56
406.53
400.499
394.469
388.439
382.408
376.378
370.348
364.318
358.288
352.258
346.228
340.197
334.167
328.137
322.107
316.077
310.047
304.017
297.987
291.957
285.926
279.896
273.866
267.836
261.806
255.776
249.746
243.716
237.686
231.655
225.625
219.595
213.565
207.535
201.504
195.474
189.444
183.414
177.383
171.353
165.323
159.293
153.262
147.232
141.202
135.172
129.141
123.111
117.081
111.051
105.02
98.9901
92.96
86.9299
80.8999
74.87
68.8405
62.8114
56.783
50.7556
44.7297
38.7061
32.6856
26.6686
20.658
14.6474
8.67844
2.70796
616.367
600.587
594.589
586.552
579.802
572.785
566.072
559.428
552.931
546.519
540.191
533.925
527.71
521.536
515.393
509.277
503.18
497.1
491.032
484.973
478.922
472.876
466.835
460.796
454.76
448.726
442.692
436.66
430.629
424.597
418.567
412.536
406.505
400.475
394.445
388.415
382.384
376.354
370.324
364.294
358.264
352.234
346.204
340.173
334.143
328.113
322.083
316.053
310.023
303.993
297.963
291.933
285.902
279.872
273.842
267.812
261.782
255.752
249.722
243.692
237.662
231.631
225.601
219.571
213.541
207.51
201.48
195.45
189.42
183.39
177.359
171.329
165.299
159.269
153.238
147.208
141.178
135.148
129.117
123.087
117.057
111.027
104.996
98.9661
92.9359
86.9058
80.8758
74.846
68.8165
62.7874
56.759
50.7316
44.7058
38.6821
32.6617