/*--------------------------------*- C++ -*----------------------------------*\
| =========                 |                                                 |
| \\      /  F ield         | OpenFOAM: The Open Source CFD Toolbox           |
|  \\    /   O peration     | Version:  v1906                                 |
|   \\  /    A nd           | Web:      www.OpenFOAM.com                      |
|    \\/     M anipulation  |                                                 |
\*---------------------------------------------------------------------------*/
FoamFile
{
    version     2.0;
    format      ascii;
    class       volScalarField;
    location    "1";
    object      p;
}
// * * * * * * * * * * * * * * * * * * * * * * * * * * * * * * * * * * * * * //

dimensions      [0 2 -2 0 0 0 0];


internalField   nonuniform List<scalar> 
4000
(
837.846
820.32
814.009
802.825
795.178
785.731
777.676
768.922
760.716
752.234
743.968
735.593
727.301
718.965
710.662
702.342
694.034
685.719
677.409
669.096
660.785
652.473
644.161
635.849
627.538
619.226
610.914
602.602
594.291
585.979
577.667
569.355
561.044
552.732
544.42
536.108
527.797
519.485
511.173
502.861
494.549
486.238
477.926
469.614
461.302
452.99
444.679
436.367
428.055
419.743
411.431
403.12
394.808
386.496
378.184
369.872
361.561
353.249
344.937
336.626
328.314
320.002
311.69
303.379
295.067
286.755
278.443
270.132
261.82
253.508
245.196
236.885
228.573
220.261
211.95
203.638
195.326
187.015
178.703
170.392
162.08
153.768
145.457
137.145
128.833
120.522
112.21
103.898
95.5868
87.2752
78.9636
70.652
62.3405
54.0293
45.7184
37.4086
29.101
20.7971
12.5045
4.21433
836.707
820.135
813.831
802.629
794.989
785.536
777.485
768.728
760.523
752.041
743.775
735.399
727.107
718.772
710.469
702.148
693.84
685.525
677.215
668.902
660.591
652.279
643.967
635.656
627.344
619.032
610.72
602.409
594.097
585.785
577.474
569.162
560.85
552.538
544.226
535.915
527.603
519.291
510.979
502.668
494.356
486.044
477.732
469.42
461.108
452.797
444.485
436.173
427.861
419.549
411.238
402.926
394.614
386.302
377.991
369.679
361.367
353.055
344.744
336.432
328.12
319.808
311.497
303.185
294.873
286.561
278.25
269.938
261.626
253.315
245.003
236.691
228.379
220.068
211.756
203.444
195.133
186.821
178.509
170.198
161.886
153.575
145.263
136.951
128.64
120.328
112.016
103.705
95.3931
87.0815
78.7699
70.4584
62.1468
53.8356
45.5247
37.2149
28.9073
20.6034
12.3111
4.0242
836.179
820.063
813.759
802.539
794.908
785.448
777.4
768.64
760.436
751.953
743.688
735.311
727.02
718.684
710.381
702.061
693.753
685.438
677.128
668.815
660.504
652.192
643.88
635.568
627.257
618.945
610.633
602.321
594.01
585.698
577.386
569.074
560.763
552.451
544.139
535.827
527.516
519.204
510.892
502.58
494.268
485.957
477.645
469.333
461.021
452.709
444.397
436.086
427.774
419.462
411.15
402.839
394.527
386.215
377.903
369.591
361.28
352.968
344.656
336.345
328.033
319.721
311.409
303.098
294.786
286.474
278.162
269.851
261.539
253.227
244.915
236.604
228.292
219.98
211.669
203.357
195.045
186.734
178.422
170.11
161.799
153.487
145.176
136.864
128.552
120.241
111.929
103.617
95.3057
86.9941
78.6825
70.371
62.0595
53.7483
45.4373
37.1276
28.8199
20.516
12.2238
3.9379
836.059
820.098
813.774
802.547
794.919
785.456
777.409
768.648
760.445
751.961
743.696
735.319
727.028
718.692
710.389
702.069
693.761
685.446
677.136
668.823
660.512
652.199
643.888
635.576
627.264
618.953
610.641
602.329
594.018
585.706
577.394
569.082
560.77
552.459
544.147
535.835
527.523
519.212
510.9
502.588
494.276
485.964
477.653
469.341
461.029
452.717
444.405
436.094
427.782
419.47
411.158
402.846
394.535
386.223
377.911
369.599
361.288
352.976
344.664
336.352
328.041
319.729
311.417
303.105
294.794
286.482
278.17
269.858
261.547
253.235
244.923
236.612
228.3
219.988
211.677
203.365
195.053
186.742
178.43
170.118
161.807
153.495
145.183
136.872
128.56
120.249
111.937
103.625
95.3136
87.002
78.6904
70.3789
62.0674
53.7561
45.4452
37.1354
28.8278
20.5239
12.2318
3.94491
836.027
820.165
813.816
802.585
794.958
785.492
777.447
768.684
760.482
751.997
743.732
735.356
727.065
718.729
710.426
702.105
693.797
685.482
677.172
668.859
660.548
652.236
643.924
635.613
627.301
618.989
610.677
602.366
594.054
585.742
577.43
569.119
560.807
552.495
544.183
535.872
527.56
519.248
510.936
502.624
494.313
486.001
477.689
469.377
461.065
452.754
444.442
436.13
427.818
419.506
411.195
402.883
394.571
386.259
377.948
369.636
361.324
353.012
344.701
336.389
328.077
319.765
311.454
303.142
294.83
286.518
278.207
269.895
261.583
253.271
244.96
236.648
228.336
220.025
211.713
203.401
195.09
186.778
178.466
170.155
161.843
153.532
145.22
136.908
128.597
120.285
111.973
103.662
95.3501
87.0385
78.7269
70.4153
62.1038
53.7926
45.4817
37.1719
28.8642
20.5603
12.2679
3.97907
835.998
820.233
813.859
802.625
794.999
785.532
777.486
768.723
760.52
752.036
743.771
735.394
727.103
718.767
710.464
702.144
693.836
685.521
677.211
668.898
660.587
652.274
643.963
635.651
627.339
619.028
610.716
602.404
594.092
585.781
577.469
569.157
560.845
552.534
544.222
535.91
527.598
519.287
510.975
502.663
494.351
486.039
477.728
469.416
461.104
452.792
444.48
436.169
427.857
419.545
411.233
402.921
394.61
386.298
377.986
369.674
361.363
353.051
344.739
336.427
328.116
319.804
311.492
303.18
294.869
286.557
278.245
269.933
261.622
253.31
244.998
236.687
228.375
220.063
211.752
203.44
195.128
186.817
178.505
170.193
161.882
153.57
145.258
136.947
128.635
120.323
112.012
103.7
95.3886
87.077
78.7653
70.4538
62.1423
53.8311
45.5201
37.2103
28.9026
20.5988
12.3062
4.01612
835.969
820.296
813.9
802.664
795.038
785.569
777.523
768.76
760.557
752.072
743.808
735.431
727.14
718.804
710.501
702.18
693.872
685.557
677.247
668.934
660.623
652.311
644
635.688
627.376
619.064
610.753
602.441
594.129
585.817
577.506
569.194
560.882
552.57
544.259
535.947
527.635
519.323
511.011
502.7
494.388
486.076
477.764
469.452
461.141
452.829
444.517
436.205
427.893
419.582
411.27
402.958
394.646
386.334
378.023
369.711
361.399
353.087
344.776
336.464
328.152
319.841
311.529
303.217
294.905
286.594
278.282
269.97
261.658
253.347
245.035
236.723
228.412
220.1
211.788
203.477
195.165
186.853
178.542
170.23
161.918
153.607
145.295
136.983
128.672
120.36
112.049
103.737
95.4253
87.1136
78.802
70.4905
62.179
53.8677
45.5568
37.247
28.9393
20.6356
12.3427
4.05162
835.944
820.353
813.938
802.699
795.075
785.604
777.559
768.794
760.592
752.107
743.843
735.466
727.174
718.838
710.536
702.215
693.907
685.592
677.282
668.969
660.658
652.346
644.034
635.722
627.411
619.099
610.787
602.476
594.164
585.852
577.54
569.229
560.917
552.605
544.293
535.981
527.67
519.358
511.046
502.734
494.422
486.111
477.799
469.487
461.175
452.863
444.552
436.24
427.928
419.616
411.305
402.993
394.681
386.369
378.057
369.746
361.434
353.122
344.81
336.499
328.187
319.875
311.563
303.252
294.94
286.628
278.316
270.005
261.693
253.381
245.07
236.758
228.446
220.135
211.823
203.511
195.2
186.888
178.576
170.265
161.953
153.641
145.33
137.018
128.706
120.395
112.083
103.772
95.4599
87.1483
78.8367
70.5252
62.2136
53.9024
45.5915
37.2817
28.9739
20.6703
12.3772
4.08517
835.923
820.406
813.974
802.732
795.109
785.636
777.592
768.827
760.625
752.139
743.875
735.498
727.207
718.871
710.568
702.247
693.939
685.624
677.314
669.001
660.69
652.378
644.067
635.755
627.443
619.131
610.82
602.508
594.196
585.884
577.573
569.261
560.949
552.637
544.326
536.014
527.702
519.39
511.078
502.767
494.455
486.143
477.831
469.519
461.208
452.896
444.584
436.272
427.96
419.649
411.337
403.025
394.713
386.401
378.09
369.778
361.466
353.154
344.843
336.531
328.219
319.908
311.596
303.284
294.972
286.661
278.349
270.037
261.725
253.414
245.102
236.79
228.478
220.167
211.855
203.543
195.232
186.92
178.609
170.297
161.985
153.674
145.362
137.05
128.739
120.427
112.115
103.804
95.4922
87.1806
78.869
70.5574
62.2459
53.9347
45.6237
37.314
29.0061
20.7027
12.4093
4.11651
835.904
820.454
814.006
802.762
795.14
785.665
777.622
768.856
760.655
752.169
743.905
735.527
727.236
718.9
710.598
702.277
693.969
685.654
677.344
669.031
660.72
652.408
644.096
635.784
627.473
619.161
610.849
602.537
594.226
585.914
577.602
569.291
560.979
552.667
544.355
536.043
527.732
519.42
511.108
502.796
494.484
486.173
477.861
469.549
461.237
452.925
444.614
436.302
427.99
419.678
411.366
403.055
394.743
386.431
378.119
369.808
361.496
353.184
344.872
336.561
328.249
319.937
311.625
303.314
295.002
286.69
278.378
270.067
261.755
253.443
245.132
236.82
228.508
220.196
211.885
203.573
195.262
186.95
178.638
170.327
162.015
153.703
145.392
137.08
128.768
120.457
112.145
103.834
95.5219
87.2103
78.8987
70.5871
62.2756
53.9644
45.6534
37.3436
29.0358
20.7324
12.4388
4.1454
835.886
820.496
814.036
802.789
795.169
785.692
777.65
768.883
760.682
752.196
743.932
735.554
727.263
718.927
710.625
702.304
693.996
685.681
677.371
669.058
660.747
652.435
644.123
635.811
627.5
619.188
610.876
602.564
594.253
585.941
577.629
569.317
561.006
552.694
544.382
536.07
527.759
519.447
511.135
502.823
494.511
486.2
477.888
469.576
461.264
452.952
444.641
436.329
428.017
419.705
411.393
403.082
394.77
386.458
378.146
369.835
361.523
353.211
344.899
336.588
328.276
319.964
311.652
303.341
295.029
286.717
278.405
270.094
261.782
253.47
245.159
236.847
228.535
220.223
211.912
203.6
195.288
186.977
178.665
170.354
162.042
153.73
145.419
137.107
128.795
120.484
112.172
103.86
95.5489
87.2372
78.9256
70.6141
62.3026
53.9913
45.6804
37.3706
29.0627
20.7595
12.4656
4.17176
835.871
820.534
814.063
802.813
795.194
785.716
777.675
768.907
760.706
752.22
743.956
735.579
727.288
718.952
710.649
702.328
694.02
685.705
677.395
669.082
660.771
652.459
644.147
635.836
627.524
619.212
610.901
602.589
594.277
585.965
577.654
569.342
561.03
552.718
544.406
536.095
527.783
519.471
511.159
502.847
494.536
486.224
477.912
469.6
461.288
452.977
444.665
436.353
428.041
419.73
411.418
403.106
394.794
386.482
378.171
369.859
361.547
353.235
344.924
336.612
328.3
319.988
311.677
303.365
295.053
286.741
278.43
270.118
261.806
253.495
245.183
236.871
228.559
220.248
211.936
203.624
195.313
187.001
178.69
170.378
162.066
153.755
145.443
137.131
128.82
120.508
112.196
103.885
95.5731
87.2615
78.9499
70.6384
62.3269
54.0156
45.7047
37.3949
29.087
20.7838
12.4898
4.19554
835.857
820.568
814.086
802.835
795.217
785.738
777.697
768.929
760.728
752.242
743.978
735.6
727.309
718.973
710.671
702.35
694.042
685.727
677.417
669.104
660.793
652.481
644.169
635.857
627.546
619.234
610.922
602.61
594.299
585.987
577.675
569.363
561.052
552.74
544.428
536.116
527.804
519.493
511.181
502.869
494.557
486.245
477.934
469.622
461.31
452.998
444.686
436.375
428.063
419.751
411.439
403.128
394.816
386.504
378.192
369.88
361.569
353.257
344.945
336.634
328.322
320.01
311.698
303.387
295.075
286.763
278.451
270.14
261.828
253.516
245.204
236.893
228.581
220.269
211.958
203.646
195.334
187.023
178.711
170.399
162.088
153.776
145.465
137.153
128.841
120.53
112.218
103.906
95.5947
87.2831
78.9715
70.66
62.3484
54.0372
45.7262
37.4165
29.1085
20.8055
12.5113
4.21674
835.845
820.596
814.107
802.854
795.237
785.756
777.716
768.947
760.747
752.26
743.997
735.619
727.328
718.992
710.689
702.369
694.061
685.746
677.436
669.123
660.812
652.499
644.188
635.876
627.564
619.253
610.941
602.629
594.318
586.006
577.694
569.382
561.07
552.759
544.447
536.135
527.823
519.512
511.2
502.888
494.576
486.264
477.953
469.641
461.329
453.017
444.705
436.394
428.082
419.77
411.458
403.146
394.835
386.523
378.211
369.899
361.588
353.276
344.964
336.652
328.341
320.029
311.717
303.405
295.094
286.782
278.47
270.158
261.847
253.535
245.223
236.912
228.6
220.288
211.977
203.665
195.353
187.042
178.73
170.418
162.107
153.795
145.483
137.172
128.86
120.549
112.237
103.925
95.6136
87.302
78.9904
70.6789
62.3673
54.0561
45.7451
37.4353
29.1274
20.8245
12.5301
4.23533
835.834
820.621
814.125
802.869
795.254
785.772
777.733
768.963
760.764
752.276
744.013
735.635
727.344
719.008
710.706
702.385
694.077
685.762
677.452
669.139
660.828
652.516
644.204
635.892
627.581
619.269
610.957
602.645
594.334
586.022
577.71
569.398
561.087
552.775
544.463
536.151
527.84
519.528
511.216
502.904
494.592
486.281
477.969
469.657
461.345
453.033
444.722
436.41
428.098
419.786
411.474
403.163
394.851
386.539
378.227
369.916
361.604
353.292
344.98
336.669
328.357
320.045
311.733
303.422
295.11
286.798
278.486
270.175
261.863
253.551
245.239
236.928
228.616
220.304
211.993
203.681
195.369
187.058
178.746
170.435
162.123
153.811
145.5
137.188
128.876
120.565
112.253
103.941
95.6298
87.3182
79.0066
70.695
62.3835
54.0723
45.7613
37.4515
29.1435
20.8408
12.5462
4.2513
835.826
820.641
814.14
802.883
795.269
785.786
777.747
768.977
760.777
752.29
744.026
735.649
727.358
719.022
710.719
702.398
694.09
685.775
677.465
669.152
660.841
652.529
644.218
635.906
627.594
619.282
610.971
602.659
594.347
586.035
577.724
569.412
561.1
552.788
544.477
536.165
527.853
519.541
511.229
502.918
494.606
486.294
477.982
469.67
461.359
453.047
444.735
436.423
428.111
419.8
411.488
403.176
394.864
386.553
378.241
369.929
361.617
353.306
344.994
336.682
328.37
320.059
311.747
303.435
295.123
286.812
278.5
270.188
261.876
253.565
245.253
236.941
228.63
220.318
212.006
203.695
195.383
187.071
178.76
170.448
162.136
153.825
145.513
137.201
128.89
120.578
112.267
103.955
95.6433
87.3317
79.0201
70.7085
62.397
54.0858
45.7748
37.465
29.157
20.8543
12.5596
4.26462
835.819
820.658
814.151
802.893
795.28
785.796
777.758
768.987
760.788
752.301
744.037
735.659
727.369
719.032
710.73
702.409
694.101
685.786
677.476
669.163
660.852
652.54
644.228
635.917
627.605
619.293
610.981
602.67
594.358
586.046
577.734
569.423
561.111
552.799
544.487
536.176
527.864
519.552
511.24
502.928
494.617
486.305
477.993
469.681
461.369
453.058
444.746
436.434
428.122
419.81
411.499
403.187
394.875
386.563
378.252
369.94
361.628
353.316
345.005
336.693
328.381
320.069
311.758
303.446
295.134
286.822
278.511
270.199
261.887
253.575
245.264
236.952
228.64
220.329
212.017
203.705
195.394
187.082
178.77
170.459
162.147
153.836
145.524
137.212
128.901
120.589
112.277
103.966
95.6541
87.3425
79.0309
70.7193
62.4078
54.0966
45.7856
37.4758
29.1678
20.8652
12.5704
4.2753
835.814
820.67
814.16
802.901
795.288
785.804
777.766
768.995
760.796
752.309
744.045
735.667
727.377
719.04
710.738
702.417
694.109
685.794
677.484
669.171
660.86
652.548
644.237
635.925
627.613
619.301
610.99
602.678
594.366
586.054
577.743
569.431
561.119
552.807
544.495
536.184
527.872
519.56
511.248
502.936
494.625
486.313
478.001
469.689
461.378
453.066
444.754
436.442
428.13
419.819
411.507
403.195
394.883
386.571
378.26
369.948
361.636
353.324
345.013
336.701
328.389
320.077
311.766
303.454
295.142
286.831
278.519
270.207
261.895
253.584
245.272
236.96
228.648
220.337
212.025
203.713
195.402
187.09
178.779
170.467
162.155
153.844
145.532
137.22
128.909
120.597
112.285
103.974
95.6622
87.3506
79.039
70.7274
62.4159
54.1047
45.7937
37.4839
29.1759
20.8733
12.5785
4.28331
835.81
820.678
814.166
802.907
795.294
785.81
777.772
769.001
760.802
752.314
744.051
735.673
727.382
719.046
710.743
702.423
694.115
685.8
677.49
669.177
660.866
652.553
644.242
635.93
627.618
619.307
610.995
602.683
594.371
586.06
577.748
569.436
561.124
552.813
544.501
536.189
527.877
519.565
511.254
502.942
494.63
486.318
478.006
469.695
461.383
453.071
444.759
436.448
428.136
419.824
411.512
403.2
394.889
386.577
378.265
369.953
361.642
353.33
345.018
336.706
328.395
320.083
311.771
303.459
295.148
286.836
278.524
270.212
261.901
253.589
245.277
236.966
228.654
220.342
212.031
203.719
195.407
187.096
178.784
170.472
162.161
153.849
145.537
137.226
128.914
120.603
112.291
103.979
95.6676
87.356
79.0444
70.7328
62.4213
54.1101
45.7991
37.4893
29.1812
20.8787
12.5838
4.28866
835.808
820.682
814.169
802.909
795.297
785.812
777.774
769.003
760.804
752.317
744.053
735.675
727.385
719.049
710.746
702.425
694.117
685.802
677.492
669.179
660.868
652.556
644.245
635.933
627.621
619.309
610.998
602.686
594.374
586.062
577.751
569.439
561.127
552.815
544.504
536.192
527.88
519.568
511.256
502.945
494.633
486.321
478.009
469.697
461.386
453.074
444.762
436.45
428.138
419.827
411.515
403.203
394.891
386.58
378.268
369.956
361.644
353.333
345.021
336.709
328.397
320.086
311.774
303.462
295.15
286.839
278.527
270.215
261.903
253.592
245.28
236.968
228.657
220.345
212.033
203.722
195.41
187.098
178.787
170.475
162.163
153.852
145.54
137.228
128.917
120.605
112.294
103.982
95.6703
87.3587
79.0471
70.7355
62.424
54.1128
45.8018
37.492
29.1839
20.8815
12.5865
4.29133
835.808
820.682
814.169
802.909
795.297
785.812
777.774
769.003
760.804
752.317
744.053
735.675
727.385
719.049
710.746
702.425
694.117
685.802
677.492
669.179
660.868
652.556
644.245
635.933
627.621
619.309
610.998
602.686
594.374
586.062
577.751
569.439
561.127
552.815
544.504
536.192
527.88
519.568
511.256
502.945
494.633
486.321
478.009
469.697
461.386
453.074
444.762
436.45
428.138
419.827
411.515
403.203
394.891
386.58
378.268
369.956
361.644
353.333
345.021
336.709
328.397
320.086
311.774
303.462
295.15
286.839
278.527
270.215
261.903
253.592
245.28
236.968
228.657
220.345
212.033
203.722
195.41
187.098
178.787
170.475
162.163
153.852
145.54
137.228
128.917
120.605
112.294
103.982
95.6703
87.3587
79.0471
70.7355
62.424
54.1128
45.8018
37.492
29.1839
20.8815
12.5865
4.29133
835.81
820.678
814.166
802.907
795.294
785.809
777.772
769.001
760.802
752.314
744.051
735.673
727.382
719.046
710.743
702.423
694.115
685.8
677.49
669.177
660.866
652.553
644.242
635.93
627.618
619.307
610.995
602.683
594.371
586.06
577.748
569.436
561.124
552.813
544.501
536.189
527.877
519.565
511.254
502.942
494.63
486.318
478.006
469.695
461.383
453.071
444.759
436.448
428.136
419.824
411.512
403.2
394.889
386.577
378.265
369.953
361.642
353.33
345.018
336.706
328.395
320.083
311.771
303.459
295.148
286.836
278.524
270.212
261.901
253.589
245.277
236.966
228.654
220.342
212.031
203.719
195.407
187.096
178.784
170.472
162.161
153.849
145.537
137.226
128.914
120.603
112.291
103.979
95.6676
87.356
79.0444
70.7328
62.4213
54.1101
45.7991
37.4893
29.1812
20.8787
12.5838
4.28866
835.814
820.67
814.16
802.901
795.288
785.804
777.766
768.995
760.796
752.309
744.045
735.667
727.377
719.04
710.738
702.417
694.109
685.794
677.484
669.171
660.86
652.548
644.237
635.925
627.613
619.301
610.99
602.678
594.366
586.054
577.743
569.431
561.119
552.807
544.495
536.184
527.872
519.56
511.248
502.936
494.625
486.313
478.001
469.689
461.377
453.066
444.754
436.442
428.13
419.819
411.507
403.195
394.883
386.571
378.26
369.948
361.636
353.324
345.013
336.701
328.389
320.077
311.766
303.454
295.142
286.831
278.519
270.207
261.895
253.584
245.272
236.96
228.648
220.337
212.025
203.713
195.402
187.09
178.779
170.467
162.155
153.844
145.532
137.22
128.909
120.597
112.285
103.974
95.6622
87.3506
79.039
70.7274
62.4159
54.1047
45.7937
37.4839
29.1759
20.8733
12.5785
4.28331
835.819
820.658
814.151
802.893
795.28
785.796
777.758
768.987
760.788
752.301
744.037
735.659
727.369
719.032
710.73
702.409
694.101
685.786
677.476
669.163
660.852
652.54
644.228
635.917
627.605
619.293
610.981
602.67
594.358
586.046
577.735
569.423
561.111
552.799
544.487
536.176
527.864
519.552
511.24
502.928
494.617
486.305
477.993
469.681
461.369
453.058
444.746
436.434
428.122
419.81
411.499
403.187
394.875
386.563
378.252
369.94
361.628
353.316
345.005
336.693
328.381
320.069
311.758
303.446
295.134
286.822
278.511
270.199
261.887
253.575
245.264
236.952
228.64
220.329
212.017
203.705
195.394
187.082
178.77
170.459
162.147
153.836
145.524
137.212
128.901
120.589
112.277
103.966
95.6541
87.3425
79.0309
70.7193
62.4078
54.0966
45.7856
37.4758
29.1678
20.8652
12.5704
4.27529
835.826
820.641
814.14
802.883
795.268
785.786
777.747
768.977
760.777
752.29
744.026
735.649
727.358
719.022
710.719
702.398
694.09
685.775
677.465
669.152
660.841
652.529
644.218
635.906
627.594
619.282
610.971
602.659
594.347
586.035
577.724
569.412
561.1
552.788
544.477
536.165
527.853
519.541
511.229
502.918
494.606
486.294
477.982
469.67
461.359
453.047
444.735
436.423
428.111
419.8
411.488
403.176
394.864
386.553
378.241
369.929
361.617
353.306
344.994
336.682
328.37
320.059
311.747
303.435
295.123
286.812
278.5
270.188
261.876
253.565
245.253
236.941
228.63
220.318
212.006
203.695
195.383
187.071
178.76
170.448
162.136
153.825
145.513
137.201
128.89
120.578
112.267
103.955
95.6433
87.3317
79.0201
70.7085
62.397
54.0858
45.7748
37.465
29.157
20.8543
12.5596
4.26462
835.834
820.621
814.125
802.869
795.254
785.772
777.733
768.963
760.764
752.276
744.013
735.635
727.344
719.008
710.706
702.385
694.077
685.762
677.452
669.139
660.828
652.516
644.204
635.892
627.581
619.269
610.957
602.645
594.334
586.022
577.71
569.398
561.087
552.775
544.463
536.151
527.839
519.528
511.216
502.904
494.592
486.28
477.969
469.657
461.345
453.033
444.722
436.41
428.098
419.786
411.474
403.163
394.851
386.539
378.227
369.916
361.604
353.292
344.98
336.669
328.357
320.045
311.733
303.422
295.11
286.798
278.486
270.175
261.863
253.551
245.239
236.928
228.616
220.304
211.993
203.681
195.369
187.058
178.746
170.435
162.123
153.811
145.5
137.188
128.876
120.565
112.253
103.941
95.6298
87.3182
79.0066
70.695
62.3835
54.0723
45.7613
37.4515
29.1435
20.8408
12.5462
4.25129
835.844
820.596
814.107
802.853
795.237
785.756
777.716
768.947
760.747
752.26
743.997
735.619
727.328
718.992
710.689
702.369
694.061
685.746
677.436
669.123
660.812
652.499
644.188
635.876
627.565
619.253
610.941
602.629
594.318
586.006
577.694
569.382
561.07
552.759
544.447
536.135
527.823
519.511
511.2
502.888
494.576
486.264
477.952
469.641
461.329
453.017
444.705
436.394
428.082
419.77
411.458
403.146
394.835
386.523
378.211
369.899
361.588
353.276
344.964
336.652
328.341
320.029
311.717
303.405
295.094
286.782
278.47
270.158
261.847
253.535
245.223
236.912
228.6
220.288
211.977
203.665
195.353
187.042
178.73
170.418
162.107
153.795
145.483
137.172
128.86
120.549
112.237
103.925
95.6136
87.302
78.9904
70.6788
62.3673
54.0561
45.7451
37.4353
29.1274
20.8245
12.5301
4.23533
835.857
820.567
814.086
802.835
795.217
785.738
777.697
768.928
760.728
752.241
743.978
735.6
727.309
718.973
710.67
702.35
694.042
685.727
677.417
669.104
660.793
652.481
644.169
635.857
627.546
619.234
610.922
602.61
594.299
585.987
577.675
569.363
561.052
552.74
544.428
536.116
527.804
519.493
511.181
502.869
494.557
486.245
477.934
469.622
461.31
452.998
444.686
436.375
428.063
419.751
411.439
403.128
394.816
386.504
378.192
369.881
361.569
353.257
344.945
336.634
328.322
320.01
311.698
303.387
295.075
286.763
278.451
270.14
261.828
253.516
245.204
236.893
228.581
220.269
211.958
203.646
195.334
187.023
178.711
170.399
162.088
153.776
145.465
137.153
128.841
120.53
112.218
103.906
95.5947
87.2831
78.9715
70.66
62.3484
54.0372
45.7262
37.4164
29.1085
20.8055
12.5113
4.21674
835.87
820.534
814.063
802.813
795.194
785.716
777.675
768.907
760.706
752.22
743.956
735.578
727.288
718.951
710.649
702.328
694.02
685.705
677.395
669.082
660.771
652.459
644.148
635.836
627.524
619.212
610.901
602.589
594.277
585.965
577.654
569.342
561.03
552.718
544.406
536.095
527.783
519.471
511.159
502.847
494.536
486.224
477.912
469.6
461.288
452.977
444.665
436.353
428.041
419.73
411.418
403.106
394.794
386.482
378.171
369.859
361.547
353.235
344.924
336.612
328.3
319.988
311.677
303.365
295.053
286.741
278.43
270.118
261.806
253.494
245.183
236.871
228.559
220.248
211.936
203.624
195.313
187.001
178.689
170.378
162.066
153.755
145.443
137.131
128.82
120.508
112.196
103.885
95.5732
87.2615
78.9499
70.6384
62.3268
54.0156
45.7046
37.3948
29.0869
20.7838
12.4898
4.19554
835.886
820.496
814.036
802.789
795.168
785.692
777.65
768.883
760.682
752.196
743.932
735.554
727.263
718.927
710.625
702.304
693.996
685.681
677.371
669.058
660.747
652.435
644.123
635.811
627.5
619.188
610.876
602.565
594.253
585.941
577.629
569.318
561.006
552.694
544.382
536.07
527.758
519.447
511.135
502.823
494.511
486.199
477.888
469.576
461.264
452.952
444.641
436.329
428.017
419.705
411.393
403.082
394.77
386.458
378.146
369.835
361.523
353.211
344.899
336.588
328.276
319.964
311.652
303.341
295.029
286.717
278.405
270.094
261.782
253.47
245.158
236.847
228.535
220.223
211.912
203.6
195.288
186.977
178.665
170.354
162.042
153.73
145.419
137.107
128.795
120.484
112.172
103.861
95.5489
87.2373
78.9256
70.6141
62.3026
53.9913
45.6804
37.3706
29.0627
20.7595
12.4656
4.17175
835.904
820.453
814.006
802.762
795.14
785.665
777.622
768.856
760.655
752.169
743.905
735.527
727.236
718.9
710.598
702.277
693.969
685.654
677.344
669.031
660.72
652.408
644.096
635.784
627.473
619.161
610.849
602.538
594.226
585.914
577.602
569.291
560.979
552.667
544.355
536.043
527.732
519.42
511.108
502.796
494.484
486.172
477.861
469.549
461.237
452.925
444.614
436.302
427.99
419.678
411.366
403.055
394.743
386.431
378.119
369.808
361.496
353.184
344.872
336.561
328.249
319.937
311.625
303.314
295.002
286.69
278.378
270.067
261.755
253.443
245.131
236.82
228.508
220.196
211.885
203.573
195.262
186.95
178.638
170.327
162.015
153.703
145.392
137.08
128.768
120.457
112.145
103.834
95.5219
87.2103
78.8987
70.5871
62.2756
53.9643
45.6534
37.3436
29.0358
20.7324
12.4388
4.14539
835.923
820.406
813.973
802.732
795.109
785.636
777.592
768.826
760.625
752.139
743.875
735.498
727.207
718.871
710.568
702.247
693.939
685.624
677.314
669.001
660.69
652.378
644.067
635.755
627.443
619.131
610.82
602.508
594.196
585.884
577.573
569.261
560.949
552.637
544.325
536.014
527.702
519.39
511.078
502.766
494.455
486.143
477.831
469.519
461.207
452.896
444.584
436.272
427.96
419.649
411.337
403.025
394.713
386.402
378.09
369.778
361.466
353.155
344.843
336.531
328.219
319.908
311.596
303.284
294.972
286.661
278.349
270.037
261.725
253.414
245.102
236.79
228.478
220.167
211.855
203.543
195.232
186.92
178.609
170.297
161.985
153.674
145.362
137.05
128.739
120.427
112.116
103.804
95.4922
87.1806
78.869
70.5574
62.2459
53.9347
45.6237
37.3139
29.0061
20.7026
12.4093
4.1165
835.944
820.353
813.938
802.699
795.074
785.603
777.559
768.794
760.592
752.107
743.842
735.465
727.174
718.838
710.536
702.215
693.907
685.592
677.282
668.969
660.658
652.346
644.034
635.722
627.411
619.099
610.787
602.476
594.164
585.852
577.54
569.229
560.917
552.605
544.293
535.981
527.67
519.358
511.046
502.734
494.422
486.111
477.799
469.487
461.175
452.863
444.552
436.24
427.928
419.616
411.305
402.993
394.681
386.369
378.058
369.746
361.434
353.122
344.81
336.499
328.187
319.875
311.563
303.252
294.94
286.628
278.316
270.005
261.693
253.381
245.07
236.758
228.446
220.134
211.823
203.511
195.2
186.888
178.576
170.265
161.953
153.641
145.33
137.018
128.706
120.395
112.083
103.772
95.4599
87.1483
78.8367
70.5252
62.2136
53.9024
45.5914
37.2816
28.9739
20.6703
12.3772
4.08517
835.969
820.296
813.899
802.663
795.038
785.569
777.523
768.759
760.557
752.072
743.808
735.431
727.14
718.804
710.501
702.18
693.872
685.557
677.247
668.934
660.623
652.311
644
635.688
627.376
619.064
610.753
602.441
594.129
585.817
577.506
569.194
560.882
552.57
544.259
535.947
527.635
519.323
511.011
502.699
494.388
486.076
477.764
469.452
461.141
452.829
444.517
436.205
427.893
419.582
411.27
402.958
394.646
386.335
378.023
369.711
361.399
353.088
344.776
336.464
328.152
319.841
311.529
303.217
294.905
286.594
278.282
269.97
261.658
253.347
245.035
236.723
228.411
220.1
211.788
203.477
195.165
186.853
178.542
170.23
161.918
153.607
145.295
136.983
128.672
120.36
112.049
103.737
95.4253
87.1137
78.802
70.4905
62.179
53.8677
45.5568
37.247
28.9392
20.6355
12.3427
4.05161
835.998
820.233
813.859
802.625
794.999
785.531
777.486
768.723
760.52
752.036
743.771
735.394
727.103
718.767
710.464
702.144
693.836
685.521
677.211
668.898
660.587
652.274
643.963
635.651
627.339
619.028
610.716
602.404
594.092
585.781
577.469
569.157
560.845
552.534
544.222
535.91
527.598
519.286
510.975
502.663
494.351
486.039
477.727
469.416
461.104
452.792
444.48
436.168
427.857
419.545
411.233
402.921
394.61
386.298
377.986
369.674
361.363
353.051
344.739
336.427
328.116
319.804
311.492
303.18
294.869
286.557
278.245
269.933
261.622
253.31
244.998
236.686
228.375
220.063
211.751
203.44
195.128
186.817
178.505
170.193
161.882
153.57
145.258
136.947
128.635
120.323
112.012
103.7
95.3886
87.077
78.7653
70.4538
62.1423
53.831
45.5201
37.2103
28.9026
20.5988
12.3062
4.01611
836.027
820.165
813.816
802.585
794.958
785.492
777.446
768.684
760.481
751.997
743.732
735.356
727.064
718.729
710.426
702.105
693.797
685.482
677.172
668.859
660.548
652.236
643.925
635.613
627.301
618.989
610.678
602.366
594.054
585.742
577.431
569.119
560.807
552.495
544.183
535.872
527.56
519.248
510.936
502.624
494.312
486.001
477.689
469.377
461.065
452.754
444.442
436.13
427.818
419.506
411.195
402.883
394.571
386.259
377.948
369.636
361.324
353.012
344.701
336.389
328.077
319.765
311.454
303.142
294.83
286.518
278.207
269.895
261.583
253.271
244.96
236.648
228.336
220.025
211.713
203.401
195.09
186.778
178.466
170.155
161.843
153.532
145.22
136.908
128.597
120.285
111.973
103.662
95.3501
87.0385
78.7269
70.4153
62.1038
53.7926
45.4816
37.1718
28.8641
20.5603
12.2679
3.97907
836.059
820.097
813.774
802.547
794.919
785.456
777.409
768.648
760.445
751.961
743.696
735.319
727.028
718.692
710.389
702.069
693.761
685.446
677.136
668.823
660.512
652.2
643.888
635.576
627.265
618.953
610.641
602.329
594.018
585.706
577.394
569.082
560.771
552.459
544.147
535.835
527.523
519.211
510.9
502.588
494.276
485.964
477.652
469.341
461.029
452.717
444.405
436.094
427.782
419.47
411.158
402.846
394.535
386.223
377.911
369.599
361.288
352.976
344.664
336.352
328.041
319.729
311.417
303.105
294.794
286.482
278.17
269.858
261.547
253.235
244.923
236.612
228.3
219.988
211.677
203.365
195.053
186.742
178.43
170.118
161.807
153.495
145.183
136.872
128.56
120.249
111.937
103.625
95.3137
87.002
78.6904
70.3789
62.0673
53.7561