/*--------------------------------*- C++ -*----------------------------------*\
| =========                 |                                                 |
| \\      /  F ield         | OpenFOAM: The Open Source CFD Toolbox           |
|  \\    /   O peration     | Version:  v1906                                 |
|   \\  /    A nd           | Web:      www.OpenFOAM.com                      |
|    \\/     M anipulation  |                                                 |
\*---------------------------------------------------------------------------*/
FoamFile
{
    version     2.0;
    format      ascii;
    class       volScalarField;
    location    "1";
    object      p;
}
// * * * * * * * * * * * * * * * * * * * * * * * * * * * * * * * * * * * * * //

dimensions      [0 2 -2 0 0 0 0];


internalField   nonuniform List<scalar> 
4000
(
426.866
413.629
409.574
404.3
399.619
394.835
390.238
385.701
381.253
376.861
372.521
368.218
363.948
359.702
355.477
351.267
347.07
342.883
338.703
334.529
330.36
326.194
322.031
317.87
313.71
309.552
305.394
301.236
297.08
292.923
288.767
284.61
280.454
276.298
272.142
267.986
263.831
259.675
255.519
251.363
247.207
243.051
238.896
234.74
230.584
226.428
222.272
218.117
213.961
209.805
205.649
201.493
197.338
193.182
189.026
184.87
180.714
176.559
172.403
168.247
164.091
159.935
155.779
151.624
147.468
143.312
139.156
135
130.844
126.688
122.533
118.377
114.221
110.065
105.909
101.753
97.5975
93.4416
89.2858
85.1299
80.9741
76.8183
72.6625
68.5067
64.351
60.1953
56.0397
51.8842
47.729
43.5742
39.4199
35.2664
31.1142
26.9638
22.816
18.6714
14.5313
10.393
6.27122
2.14862
424.419
413.539
409.424
404.112
399.429
394.643
390.047
385.508
381.061
376.668
372.327
368.024
363.753
359.508
355.282
351.072
346.875
342.688
338.508
334.334
330.165
325.999
321.836
317.675
313.515
309.356
305.198
301.041
296.884
292.728
288.571
284.415
280.259
276.103
271.947
267.791
263.635
259.479
255.324
251.168
247.012
242.856
238.7
234.545
230.389
226.233
222.077
217.921
213.765
209.61
205.454
201.298
197.142
192.987
188.831
184.675
180.519
176.363
172.207
168.052
163.896
159.74
155.584
151.428
147.272
143.117
138.961
134.805
130.649
126.493
122.337
118.181
114.026
109.87
105.714
101.558
97.4022
93.2463
89.0905
84.9346
80.7788
76.623
72.4672
68.3114
64.1557
60
55.8444
51.689
47.5337
43.3789
39.2246
35.0711
30.9189
26.7685
22.6206
18.4761
14.3361
10.1983
6.07785
1.967
423.137
413.536
409.376
404.033
399.35
394.56
389.964
385.424
380.976
376.583
372.241
367.938
363.667
359.421
355.196
350.986
346.788
342.601
338.421
334.247
330.078
325.912
321.749
317.588
313.428
309.269
305.112
300.954
296.797
292.641
288.484
284.328
280.172
276.016
271.86
267.704
263.548
259.393
255.237
251.081
246.925
242.769
238.613
234.458
230.302
226.146
221.99
217.834
213.679
209.523
205.367
201.211
197.055
192.9
188.744
184.588
180.432
176.276
172.12
167.965
163.809
159.653
155.497
151.341
147.185
143.03
138.874
134.718
130.562
126.406
122.25
118.095
113.939
109.783
105.627
101.471
97.3152
93.1594
89.0035
84.8477
80.6919
76.5361
72.3803
68.2245
64.0687
59.913
55.7575
51.602
47.4468
43.292
39.1377
34.9842
30.8319
26.6815
22.5336
18.3891
14.2492
10.1115
5.99172
1.88587
422.619
413.628
409.413
404.051
399.367
394.573
389.976
385.436
380.987
376.593
372.252
367.948
363.677
359.43
355.204
350.995
346.797
342.61
338.43
334.256
330.087
325.921
321.758
317.596
313.437
309.278
305.12
300.963
296.806
292.649
288.493
284.337
280.181
276.025
271.869
267.713
263.557
259.401
255.245
251.089
246.933
242.778
238.622
234.466
230.31
226.154
221.999
217.843
213.687
209.531
205.375
201.22
197.064
192.908
188.752
184.596
180.441
176.285
172.129
167.973
163.817
159.661
155.506
151.35
147.194
143.038
138.882
134.726
130.571
126.415
122.259
118.103
113.947
109.791
105.635
101.48
97.3237
93.1678
89.012
84.8561
80.7003
76.5445
72.3887
68.2329
64.0771
59.9215
55.7659
51.6104
47.4552
43.3004
39.146
34.9926
30.8403
26.6898
22.542
18.3974
14.2577
10.1203
5.99933
1.89068
422.28
413.739
409.478
404.097
399.411
394.612
390.016
385.474
381.025
376.631
372.289
367.985
363.714
359.467
355.241
351.031
346.834
342.646
338.466
334.292
330.123
325.957
321.794
317.633
313.473
309.314
305.156
300.999
296.842
292.686
288.529
284.373
280.217
276.061
271.905
267.749
263.593
259.437
255.282
251.126
246.97
242.814
238.658
234.502
230.347
226.191
222.035
217.879
213.723
209.568
205.412
201.256
197.1
192.944
188.789
184.633
180.477
176.321
172.165
168.009
163.854
159.698
155.542
151.386
147.23
143.074
138.919
134.763
130.607
126.451
122.295
118.139
113.984
109.828
105.672
101.516
97.3601
93.2042
89.0484
84.8925
80.7367
76.5809
72.4251
68.2693
64.1135
59.9579
55.8023
51.6468
47.4916
43.3367
39.1824
35.0289
30.8766
26.7262
22.5783
18.4338
14.2941
10.1566
6.0347
1.92171
421.975
413.834
409.545
404.147
399.456
394.653
390.057
385.514
381.065
376.671
372.328
368.024
363.753
359.506
355.28
351.07
346.872
342.685
338.505
334.331
330.161
325.996
321.832
317.671
313.511
309.353
305.195
301.037
296.881
292.724
288.568
284.411
280.255
276.099
271.943
267.787
263.632
259.476
255.32
251.164
247.008
242.852
238.697
234.541
230.385
226.229
222.073
217.918
213.762
209.606
205.45
201.294
197.139
192.983
188.827
184.671
180.515
176.36
172.204
168.048
163.892
159.736
155.58
151.424
147.269
143.113
138.957
134.801
130.645
126.489
122.334
118.178
114.022
109.866
105.71
101.554
97.3984
93.2426
89.0867
84.9309
80.7751
76.6192
72.4634
68.3076
64.1519
59.9962
55.8406
51.6852
47.53
43.3751
39.2208
35.0673
30.915
26.7645
22.6166
18.4721
14.3325
10.1954
6.07241
1.95498
421.705
413.912
409.608
404.195
399.499
394.692
390.096
385.553
381.104
376.709
372.366
368.062
363.79
359.543
355.317
351.107
346.909
342.722
338.542
334.368
330.198
326.032
321.869
317.708
313.548
309.389
305.231
301.074
296.917
292.761
288.604
284.448
280.292
276.136
271.98
267.824
263.668
259.512
255.357
251.201
247.045
242.889
238.733
234.577
230.422
226.266
222.11
217.954
213.798
209.643
205.487
201.331
197.175
193.019
188.864
184.708
180.552
176.396
172.24
168.084
163.929
159.773
155.617
151.461
147.305
143.149
138.994
134.838
130.682
126.526
122.37
118.214
114.059
109.903
105.747
101.591
97.4351
93.2792
89.1234
84.9675
80.8117
76.6559
72.5001
68.3443
64.1886
60.0329
55.8773
51.7218
47.5666
43.4118
39.2574
35.1039
30.9516
26.8011
22.6532
18.5088
14.3692
10.2326
6.10826
1.98639
421.469
413.975
409.668
404.241
399.539
394.728
390.132
385.589
381.14
376.744
372.402
368.097
363.825
359.578
355.352
351.142
346.944
342.756
338.576
334.402
330.233
326.067
321.904
317.742
313.583
309.424
305.266
301.109
296.952
292.795
288.639
284.483
280.327
276.171
272.015
267.859
263.703
259.547
255.391
251.235
247.08
242.924
238.768
234.612
230.456
226.3
222.145
217.989
213.833
209.677
205.521
201.366
197.21
193.054
188.898
184.742
180.587
176.431
172.275
168.119
163.963
159.808
155.652
151.496
147.34
143.184
139.028
134.872
130.717
126.561
122.405
118.249
114.093
109.937
105.781
101.626
97.4698
93.3139
89.1581
85.0022
80.8464
76.6906
72.5348
68.379
64.2232
60.0675
55.912
51.7565
47.6013
43.4464
39.2921
35.1386
30.9862
26.8357
22.6878
18.5435
14.404
10.268
6.14202
2.0158
421.264
414.027
409.723
404.284
399.576
394.762
390.166
385.622
381.173
376.778
372.435
368.13
363.858
359.611
355.385
351.174
346.977
342.789
338.609
334.435
330.265
326.099
321.936
317.775
313.615
309.456
305.298
301.141
296.984
292.828
288.671
284.515
280.359
276.203
272.047
267.891
263.735
259.579
255.424
251.268
247.112
242.956
238.8
234.644
230.489
226.333
222.177
218.021
213.865
209.71
205.554
201.398
197.242
193.086
188.931
184.775
180.619
176.463
172.307
168.151
163.996
159.84
155.684
151.528
147.372
143.216
139.061
134.905
130.749
126.593
122.437
118.281
114.126
109.97
105.814
101.658
97.5021
93.3462
89.1904
85.0345
80.8787
76.7229
72.5671
68.4113
64.2555
60.0998
55.9442
51.7888
47.6336
43.4787
39.3244
35.1708
31.0185
26.868
22.7201
18.5758
14.4363
10.301
6.17349
2.04304
421.085
414.069
409.773
404.325
399.61
394.792
390.197
385.653
381.204
376.808
372.465
368.16
363.888
359.641
355.415
351.204
347.006
342.818
338.638
334.464
330.295
326.129
321.966
317.804
313.645
309.486
305.328
301.171
297.014
292.857
288.701
284.545
280.389
276.233
272.077
267.921
263.765
259.609
255.453
251.297
247.142
242.986
238.83
234.674
230.518
226.362
222.207
218.051
213.895
209.739
205.583
201.428
197.272
193.116
188.96
184.804
180.649
176.493
172.337
168.181
164.025
159.869
155.714
151.558
147.402
143.246
139.09
134.934
130.779
126.623
122.467
118.311
114.155
109.999
105.843
101.688
97.5317
93.3759
89.22
85.0642
80.9083
76.7525
72.5967
68.4409
64.2852
60.1295
55.9739
51.8185
47.6632
43.5084
39.354
35.2005
31.0481
26.8976
22.7497
18.6055
14.4661
10.3315
6.20243
2.06798
420.929
414.103
409.819
404.363
399.64
394.82
390.225
385.68
381.232
376.836
372.493
368.188
363.915
359.668
355.442
351.231
347.033
342.846
338.665
334.491
330.322
326.156
321.993
317.831
313.672
309.513
305.355
301.198
297.041
292.884
288.728
284.572
280.416
276.26
272.104
267.948
263.792
259.636
255.48
251.324
247.169
243.013
238.857
234.701
230.545
226.389
222.234
218.078
213.922
209.766
205.61
201.455
197.299
193.143
188.987
184.831
180.676
176.52
172.364
168.208
164.052
159.896
155.741
151.585
147.429
143.273
139.117
134.961
130.806
126.65
122.494
118.338
114.182
110.026
105.87
101.715
97.5587
93.4029
89.247
85.0912
80.9353
76.7795
72.6237
68.4679
64.3122
60.1565
56.0009
51.8454
47.6902
43.5353
39.381
35.2274
31.0751
26.9246
22.7766
18.6325
14.4931
10.3594
6.22877
2.09058
420.793
414.13
409.859
404.397
399.668
394.845
390.25
385.705
381.256
376.86
372.517
368.212
363.94
359.693
355.466
351.256
347.058
342.87
338.69
334.516
330.346
326.18
322.017
317.856
313.696
309.537
305.379
301.222
297.065
292.909
288.752
284.596
280.44
276.284
272.128
267.972
263.816
259.66
255.504
251.349
247.193
243.037
238.881
234.725
230.57
226.414
222.258
218.102
213.946
209.791
205.635
201.479
197.323
193.167
189.012
184.856
180.7
176.544
172.388
168.232
164.077
159.921
155.765
151.609
147.453
143.297
139.142
134.986
130.83
126.674
122.518
118.362
114.206
110.051
105.895
101.739
97.583
93.4271
89.2713
85.1154
80.9596
76.8038
72.648
68.4922
64.3364
60.1807
56.0252
51.8697
47.7145
43.5596
39.4053
35.2517
31.0994
26.9488
22.8009
18.6568
14.5175
10.3845
6.25251
2.11085
420.676
414.151
409.895
404.427
399.692
394.867
390.272
385.727
381.279
376.882
372.539
368.234
363.962
359.715
355.488
351.277
347.079
342.891
338.711
334.537
330.368
326.202
322.039
317.877
313.717
309.559
305.401
301.244
297.087
292.93
288.774
284.618
280.461
276.305
272.15
267.994
263.838
259.682
255.526
251.37
247.214
243.059
238.903
234.747
230.591
226.435
222.279
218.124
213.968
209.812
205.656
201.501
197.345
193.189
189.033
184.877
180.721
176.566
172.41
168.254
164.098
159.942
155.786
151.631
147.475
143.319
139.163
135.007
130.851
126.696
122.54
118.384
114.228
110.072
105.916
101.76
97.6046
93.4487
89.2929
85.137
80.9812
76.8254
72.6696
68.5138
64.358
60.2023
56.0467
51.8913
47.7361
43.5812
39.4268
35.2733
31.1209
26.9704
22.8224
18.6784
14.5391
10.407
6.27363
2.12883
420.577
414.168
409.926
404.454
399.714
394.886
390.292
385.746
381.298
376.902
372.558
368.253
363.981
359.734
355.507
351.296
347.098
342.91
338.73
334.556
330.387
326.221
322.057
317.896
313.736
309.578
305.42
301.262
297.106
292.949
288.793
284.636
280.48
276.324
272.168
268.013
263.857
259.701
255.545
251.389
247.233
243.077
238.922
234.766
230.61
226.454
222.298
218.143
213.987
209.831
205.675
201.519
197.364
193.208
189.052
184.896
180.74
176.585
172.429
168.273
164.117
159.961
155.805
151.65
147.494
143.338
139.182
135.026
130.87
126.714
122.559
118.403
114.247
110.091
105.935
101.779
97.6235
93.4676
89.3118
85.1559
81.0001
76.8443
72.6884
68.5327
64.3769
60.2212
56.0656
51.9102
47.755
43.6001
39.4457
35.2922
31.1398
26.9893
22.8413
18.6974
14.5581
10.4266
6.29213
2.14453
420.494
414.181
409.952
404.477
399.732
394.903
390.308
385.763
381.314
376.918
372.575
368.27
363.997
359.75
355.523
351.312
347.115
342.927
338.747
334.572
330.403
326.237
322.074
317.912
313.753
309.594
305.436
301.279
297.122
292.965
288.809
284.653
280.497
276.341
272.185
268.029
263.873
259.717
255.561
251.405
247.249
243.094
238.938
234.782
230.626
226.47
222.315
218.159
214.003
209.847
205.691
201.536
197.38
193.224
189.068
184.912
180.757
176.601
172.445
168.289
164.133
159.977
155.822
151.666
147.51
143.354
139.198
135.042
130.887
126.731
122.575
118.419
114.263
110.107
105.951
101.796
97.6397
93.4838
89.328
85.1721
81.0163
76.8604
72.7046
68.5488
64.3931
60.2374
56.0818
51.9264
47.7711
43.6163
39.4619
35.3084
31.156
27.0055
22.8575
18.7136
14.5744
10.4436
6.308
2.15797
420.427
414.191
409.974
404.497
399.747
394.916
390.322
385.777
381.328
376.932
372.589
368.283
364.011
359.763
355.537
351.326
347.128
342.94
338.76
334.586
330.416
326.25
322.087
317.926
313.766
309.607
305.449
301.292
297.135
292.979
288.822
284.666
280.51
276.354
272.198
268.042
263.886
259.73
255.575
251.419
247.263
243.107
238.951
234.796
230.64
226.484
222.328
218.172
214.016
209.861
205.705
201.549
197.393
193.238
189.082
184.926
180.77
176.614
172.458
168.303
164.147
159.991
155.835
151.679
147.523
143.368
139.212
135.056
130.9
126.744
122.588
118.432
114.277
110.121
105.965
101.809
97.6532
93.4973
89.3415
85.1856
81.0298
76.8739
72.7181
68.5623
64.4066
60.2509
56.0953
51.9399
47.7846
43.6298
39.4754
35.3219
31.1695
27.019
22.8709
18.7271
14.5879
10.4577
6.32124
2.16915
420.374
414.198
409.992
404.512
399.759
394.927
390.333
385.787
381.339
376.943
372.599
368.294
364.022
359.774
355.547
351.337
347.139
342.951
338.771
334.597
330.427
326.261
322.098
317.937
313.777
309.618
305.46
301.303
297.146
292.989
288.833
284.677
280.521
276.365
272.209
268.053
263.897
259.741
255.585
251.43
247.274
243.118
238.962
234.806
230.65
226.495
222.339
218.183
214.027
209.871
205.716
201.56
197.404
193.248
189.092
184.937
180.781
176.625
172.469
168.313
164.158
160.002
155.846
151.69
147.534
143.378
139.222
135.067
130.911
126.755
122.599
118.443
114.287
110.132
105.976
101.82
97.664
93.5081
89.3523
85.1964
81.0406
76.8847
72.7289
68.5731
64.4174
60.2617
56.1061
51.9506
47.7954
43.6405
39.4862
35.3326
31.1803
27.0298
22.8817
18.738
14.5987
10.469
6.33184
2.17809
420.334
414.203
410.005
404.524
399.768
394.935
390.341
385.796
381.347
376.951
372.608
368.302
364.03
359.782
355.556
351.345
347.147
342.959
338.779
334.605
330.435
326.269
322.106
317.945
313.785
309.626
305.468
301.311
297.154
292.998
288.841
284.685
280.529
276.373
272.217
268.061
263.905
259.749
255.594
251.438
247.282
243.126
238.97
234.814
230.659
226.503
222.347
218.191
214.035
209.88
205.724
201.568
197.412
193.256
189.101
184.945
180.789
176.633
172.477
168.321
164.166
160.01
155.854
151.698
147.542
143.386
139.231
135.075
130.919
126.763
122.607
118.451
114.295
110.14
105.984
101.828
97.6721
93.5162
89.3604
85.2045
81.0487
76.8928
72.737
68.5812
64.4255
60.2698
56.1142
51.9587
47.8035
43.6486
39.4943
35.3407
31.1884
27.0378
22.8898
18.7461
14.6069
10.4775
6.33979
2.18479
420.308
414.206
410.013
404.532
399.774
394.941
390.347
385.801
381.353
376.956
372.613
368.308
364.035
359.788
355.561
351.35
347.152
342.964
338.784
334.61
330.441
326.275
322.111
317.95
313.79
309.632
305.474
301.316
297.159
293.003
288.847
284.69
280.534
276.378
272.222
268.066
263.911
259.755
255.599
251.443
247.287
243.131
238.976
234.82
230.664
226.508
222.352
218.197
214.041
209.885
205.729
201.573
197.418
193.262
189.106
184.95
180.794
176.639
172.483
168.327
164.171
160.015
155.859
151.704
147.548
143.392
139.236
135.08
130.924
126.768
122.613
118.457
114.301
110.145
105.989
101.833
97.6775
93.5216
89.3658
85.2099
81.0541
76.8982
72.7424
68.5866
64.4309
60.2752
56.1196
51.9641
47.8089
43.654
39.4997
35.3461
31.1938
27.0432
22.8952
18.7515
14.6123
10.4832
6.3451
2.18926
420.295
414.208
410.018
404.536
399.777
394.943
390.349
385.804
381.356
376.959
372.616
368.311
364.038
359.791
355.564
351.353
347.155
342.967
338.787
334.613
330.443
326.277
322.114
317.953
313.793
309.634
305.476
301.319
297.162
293.006
288.849
284.693
280.537
276.381
272.225
268.069
263.913
259.757
255.602
251.446
247.29
243.134
238.978
234.822
230.667
226.511
222.355
218.199
214.043
209.888
205.732
201.576
197.42
193.264
189.109
184.953
180.797
176.641
172.485
168.33
164.174
160.018
155.862
151.706
147.55
143.395
139.239
135.083
130.927
126.771
122.615
118.459
114.304
110.148
105.992
101.836
97.6802
93.5243
89.3685
85.2126
81.0568
76.9009
72.7451
68.5893
64.4336
60.2779
56.1223
51.9668
47.8116
43.6567
39.5024
35.3488
31.1965
27.0459
22.8979
18.7542
14.615
10.4861
6.34775
2.19149
420.295
414.208
410.018
404.536
399.777
394.943
390.349
385.804
381.356
376.959
372.616
368.311
364.038
359.791
355.564
351.353
347.155
342.967
338.787
334.613
330.443
326.277
322.114
317.953
313.793
309.634
305.476
301.319
297.162
293.006
288.849
284.693
280.537
276.381
272.225
268.069
263.913
259.757
255.602
251.446
247.29
243.134
238.978
234.822
230.667
226.511
222.355
218.199
214.043
209.888
205.732
201.576
197.42
193.264
189.109
184.953
180.797
176.641
172.485
168.33
164.174
160.018
155.862
151.706
147.55
143.395
139.239
135.083
130.927
126.771
122.615
118.459
114.304
110.148
105.992
101.836
97.6802
93.5243
89.3685
85.2126
81.0568
76.9009
72.7451
68.5893
64.4336
60.2779
56.1223
51.9668
47.8116
43.6567
39.5024
35.3488
31.1965
27.0459
22.8979
18.7542
14.615
10.4861
6.34775
2.19149
420.308
414.206
410.013
404.532
399.774
394.941
390.347
385.801
381.353
376.956
372.613
368.308
364.035
359.788
355.561
351.35
347.152
342.964
338.784
334.61
330.441
326.275
322.111
317.95
313.79
309.632
305.474
301.316
297.159
293.003
288.847
284.69
280.534
276.378
272.222
268.066
263.911
259.755
255.599
251.443
247.287
243.131
238.976
234.82
230.664
226.508
222.352
218.197
214.041
209.885
205.729
201.573
197.418
193.262
189.106
184.95
180.794
176.638
172.483
168.327
164.171
160.015
155.859
151.704
147.548
143.392
139.236
135.08
130.924
126.768
122.613
118.457
114.301
110.145
105.989
101.833
97.6775
93.5216
89.3658
85.2099
81.0541
76.8982
72.7424
68.5866
64.4308
60.2752
56.1196
51.9641
47.8089
43.654
39.4997
35.3461
31.1938
27.0433
22.8952
18.7515
14.6123
10.4832
6.3451
2.18926
420.334
414.203
410.005
404.524
399.768
394.935
390.341
385.796
381.347
376.951
372.608
368.302
364.03
359.782
355.556
351.345
347.147
342.959
338.779
334.605
330.435
326.269
322.106
317.945
313.785
309.626
305.468
301.311
297.154
292.998
288.841
284.685
280.529
276.373
272.217
268.061
263.905
259.749
255.593
251.438
247.282
243.126
238.97
234.814
230.659
226.503
222.347
218.191
214.035
209.88
205.724
201.568
197.412
193.256
189.101
184.945
180.789
176.633
172.477
168.321
164.166
160.01
155.854
151.698
147.542
143.386
139.231
135.075
130.919
126.763
122.607
118.451
114.295
110.14
105.984
101.828
97.6721
93.5162
89.3604
85.2045
81.0487
76.8928
72.737
68.5812
64.4254
60.2698
56.1142
51.9587
47.8035
43.6486
39.4943
35.3408
31.1884
27.0379
22.8898
18.7461
14.6069
10.4775
6.3398
2.1848
420.374
414.198
409.992
404.513
399.759
394.927
390.333
385.787
381.339
376.943
372.599
368.294
364.022
359.774
355.547
351.337
347.139
342.951
338.771
334.597
330.427
326.261
322.098
317.937
313.777
309.618
305.46
301.303
297.146
292.989
288.833
284.677
280.521
276.365
272.209
268.053
263.897
259.741
255.585
251.43
247.274
243.118
238.962
234.806
230.651
226.495
222.339
218.183
214.027
209.872
205.716
201.56
197.404
193.248
189.092
184.937
180.781
176.625
172.469
168.313
164.158
160.002
155.846
151.69
147.534
143.378
139.222
135.067
130.911
126.755
122.599
118.443
114.287
110.132
105.976
101.82
97.664
93.5081
89.3523
85.1964
81.0406
76.8847
72.7289
68.5731
64.4174
60.2617
56.1061
51.9506
47.7954
43.6405
39.4862
35.3327
31.1803
27.0298
22.8817
18.738
14.5988
10.469
6.33185
2.1781
420.427
414.191
409.974
404.497
399.747
394.916
390.322
385.777
381.328
376.932
372.589
368.283
364.011
359.763
355.537
351.326
347.128
342.94
338.76
334.586
330.416
326.25
322.087
317.926
313.766
309.607
305.449
301.292
297.135
292.979
288.822
284.666
280.51
276.354
272.198
268.042
263.886
259.73
255.575
251.419
247.263
243.107
238.951
234.796
230.64
226.484
222.328
218.172
214.017
209.861
205.705
201.549
197.393
193.237
189.082
184.926
180.77
176.614
172.458
168.303
164.147
159.991
155.835
151.679
147.523
143.368
139.212
135.056
130.9
126.744
122.588
118.432
114.277
110.121
105.965
101.809
97.6532
93.4973
89.3415
85.1856
81.0298
76.8739
72.7181
68.5623
64.4066
60.2509
56.0953
51.9398
47.7846
43.6298
39.4754
35.3219
31.1695
27.019
22.871
18.7272
14.5879
10.4577
6.32126
2.16916
420.494
414.181
409.952
404.477
399.732
394.903
390.308
385.763
381.314
376.918
372.575
368.27
363.997
359.75
355.523
351.312
347.115
342.927
338.747
334.572
330.403
326.237
322.074
317.912
313.753
309.594
305.436
301.279
297.122
292.965
288.809
284.653
280.497
276.341
272.185
268.029
263.873
259.717
255.561
251.405
247.249
243.094
238.938
234.782
230.626
226.47
222.315
218.159
214.003
209.847
205.691
201.536
197.38
193.224
189.068
184.912
180.757
176.601
172.445
168.289
164.133
159.977
155.822
151.666
147.51
143.354
139.198
135.042
130.886
126.731
122.575
118.419
114.263
110.107
105.951
101.796
97.6397
93.4838
89.328
85.1721
81.0163
76.8604
72.7046
68.5488
64.3931
60.2374
56.0818
51.9263
47.7711
43.6163
39.4619
35.3084
31.156
27.0055
22.8575
18.7136
14.5744
10.4436
6.30802
2.15798
420.577
414.168
409.926
404.454
399.714
394.886
390.292
385.746
381.298
376.902
372.558
368.253
363.981
359.734
355.507
351.296
347.098
342.91
338.73
334.556
330.387
326.221
322.057
317.896
313.736
309.578
305.42
301.262
297.106
292.949
288.793
284.636
280.48
276.324
272.168
268.012
263.857
259.701
255.545
251.389
247.233
243.077
238.922
234.766
230.61
226.454
222.298
218.143
213.987
209.831
205.675
201.519
197.364
193.208
189.052
184.896
180.74
176.585
172.429
168.273
164.117
159.961
155.805
151.65
147.494
143.338
139.182
135.026
130.87
126.714
122.559
118.403
114.247
110.091
105.935
101.779
97.6235
93.4677
89.3118
85.1559
81.0001
76.8442
72.6884
68.5326
64.3769
60.2212
56.0656
51.9102
47.7549
43.6001
39.4457
35.2922
31.1399
26.9893
22.8413
18.6974
14.5581
10.4267
6.29215
2.14454
420.676
414.151
409.895
404.427
399.692
394.867
390.272
385.727
381.279
376.882
372.539
368.234
363.962
359.715
355.488
351.277
347.079
342.891
338.711
334.537
330.368
326.202
322.039
317.877
313.717
309.559
305.401
301.244
297.087
292.93
288.774
284.618
280.461
276.305
272.149
267.994
263.838
259.682
255.526
251.37
247.214
243.059
238.903
234.747
230.591
226.435
222.28
218.124
213.968
209.812
205.656
201.501
197.345
193.189
189.033
184.877
180.721
176.566
172.41
168.254
164.098
159.942
155.787
151.631
147.475
143.319
139.163
135.007
130.851
126.696
122.54
118.384
114.228
110.072
105.916
101.76
97.6046
93.4488
89.2929
85.137
80.9812
76.8254
72.6695
68.5137
64.358
60.2023
56.0467
51.8913
47.7361
43.5812
39.4269
35.2733
31.121
26.9705
22.8225
18.6785
14.5392
10.407
6.27366
2.12884
420.793
414.13
409.859
404.397
399.668
394.845
390.25
385.705
381.256
376.86
372.517
368.212
363.94
359.693
355.466
351.256
347.058
342.87
338.69
334.516
330.346
326.18
322.017
317.856
313.696
309.537
305.379
301.222
297.065
292.909
288.752
284.596
280.44
276.284
272.128
267.972
263.816
259.66
255.504
251.349
247.193
243.037
238.881
234.725
230.57
226.414
222.258
218.102
213.946
209.791
205.635
201.479
197.323
193.167
189.011
184.856
180.7
176.544
172.388
168.232
164.077
159.921
155.765
151.609
147.453
143.297
139.142
134.986
130.83
126.674
122.518
118.362
114.206
110.051
105.895
101.739
97.583
93.4272
89.2713
85.1155
80.9596
76.8038
72.6479
68.4921
64.3364
60.1807
56.0251
51.8697
47.7145
43.5596
39.4053
35.2518
31.0994
26.9489
22.8009
18.6569
14.5175
10.3846
6.25254
2.11086
420.929
414.103
409.819
404.363
399.64
394.82
390.225
385.68
381.231
376.836
372.493
368.188
363.915
359.668
355.442
351.231
347.033
342.846
338.665
334.491
330.322
326.156
321.993
317.831
313.672
309.513
305.355
301.198
297.041
292.884
288.728
284.572
280.416
276.26
272.104
267.948
263.792
259.636
255.48
251.324
247.168
243.013
238.857
234.701
230.545
226.39
222.234
218.078
213.922
209.766
205.61
201.455
197.299
193.143
188.987
184.831
180.676
176.52
172.364
168.208
164.052
159.896
155.741
151.585
147.429
143.273
139.117
134.961
130.806
126.65
122.494
118.338
114.182
110.026
105.87
101.715
97.5587
93.4029
89.247
85.0912
80.9353
76.7795
72.6237
68.4679
64.3121
60.1564
56.0008
51.8454
47.6902
43.5353
39.381
35.2275
31.0752
26.9246
22.7767
18.6325
14.4932
10.3594
6.2288
2.09059
421.085
414.069
409.773
404.325
399.61
394.792
390.197
385.653
381.204
376.808
372.465
368.16
363.888
359.641
355.414
351.204
347.006
342.818
338.638
334.464
330.295
326.129
321.966
317.804
313.645
309.486
305.328
301.171
297.014
292.857
288.701
284.545
280.389
276.233
272.077
267.921
263.765
259.609
255.453
251.297
247.142
242.986
238.83
234.674
230.518
226.363
222.207
218.051
213.895
209.739
205.583
201.428
197.272
193.116
188.96
184.804
180.649
176.493
172.337
168.181
164.025
159.87
155.714
151.558
147.402
143.246
139.09
134.934
130.779
126.623
122.467
118.311
114.155
109.999
105.843
101.688
97.5318
93.3759
89.2201
85.0642
80.9083
76.7525
72.5967
68.4409
64.2851
60.1294
55.9739
51.8184
47.6632
43.5084
39.354
35.2005
31.0482
26.8977
22.7498
18.6055
14.4661
10.3316
6.20246
2.06799
421.264
414.027
409.723
404.284
399.576
394.762
390.166
385.622
381.173
376.778
372.435
368.13
363.858
359.611
355.385
351.174
346.976
342.789
338.609
334.435
330.265
326.099
321.936
317.775
313.615
309.456
305.298
301.141
296.984
292.828
288.671
284.515
280.359
276.203
272.047
267.891
263.735
259.579
255.423
251.268
247.112
242.956
238.8
234.644
230.489
226.333
222.177
218.021
213.865
209.71
205.554
201.398
197.242
193.086
188.931
184.775
180.619
176.463
172.307
168.151
163.996
159.84
155.684
151.528
147.372
143.216
139.061
134.905
130.749
126.593
122.437
118.281
114.125
109.97
105.814
101.658
97.5021
93.3462
89.1904
85.0345
80.8787
76.7228
72.567
68.4112
64.2555
60.0998
55.9442
51.7888
47.6336
43.4787
39.3244
35.1709
31.0186
26.8681
22.7201
18.5758
14.4364
10.3011
6.17352
2.04306
421.469
413.975
409.668
404.241
399.539
394.728
390.132
385.589
381.14
376.744
372.402
368.097
363.825
359.578
355.352
351.142
346.944
342.756
338.576
334.402
330.233
326.067
321.904
317.742
313.583
309.424
305.266
301.109
296.952
292.795
288.639
284.483
280.327
276.171
272.015
267.859
263.703
259.547
255.391
251.235
247.08
242.924
238.768
234.612
230.456
226.301
222.145
217.989
213.833
209.677
205.522
201.366
197.21
193.054
188.898
184.742
180.587
176.431
172.275
168.119
163.963
159.808
155.652
151.496
147.34
143.184
139.028
134.872
130.717
126.561
122.405
118.249
114.093
109.937
105.782
101.626
97.4698
93.314
89.1581
85.0022
80.8464
76.6905
72.5347
68.3789
64.2232
60.0675
55.9119
51.7565
47.6013
43.4464
39.2921
35.1386
30.9863
26.8358
22.6879
18.5435
14.4041
10.268
6.14206
2.01581
421.705
413.912
409.608
404.195
399.499
394.692
390.096
385.553
381.104
376.709
372.366
368.062
363.79
359.543
355.317
351.107
346.909
342.722
338.542
334.368
330.198
326.032
321.869
317.708
313.548
309.389
305.231
301.074
296.917
292.761
288.604
284.448
280.292
276.136
271.98
267.824
263.668
259.512
255.356
251.201
247.045
242.889
238.733
234.578
230.422
226.266
222.11
217.954
213.798
209.643
205.487
201.331
197.175
193.019
188.864
184.708
180.552
176.396
172.24
168.085
163.929
159.773
155.617
151.461
147.305
143.149
138.994
134.838
130.682
126.526
122.37
118.214
114.059
109.903
105.747
101.591
97.4351
93.2793
89.1234
84.9676
80.8117
76.6559
72.5
68.3442
64.1885
60.0328
55.8772
51.7218
47.5666
43.4118
39.2575
35.104
30.9517
26.8012
22.6533
18.5089
14.3693
10.2327
6.10829
1.9864
421.975
413.834
409.545
404.147
399.456
394.653
390.057
385.514
381.065
376.671
372.328
368.024
363.753
359.506
355.28
351.07
346.872
342.685
338.505
334.331
330.162
325.996
321.832
317.671
313.511
309.353
305.195
301.037
296.881
292.724
288.568
284.411
280.255
276.099
271.943
267.787
263.631
259.476
255.32
251.164
247.008
242.852
238.697
234.541
230.385
226.229
222.073
217.918
213.762
209.606
205.45
201.294
197.139
192.983
188.827
184.671
180.515
176.359
172.204
168.048
163.892
159.736
155.58
151.425
147.269
143.113
138.957
134.801
130.645
126.489
122.334
118.178
114.022
109.866
105.71
101.554
97.3985
93.2426
89.0868
84.9309
80.775
76.6192
72.4634
68.3076
64.1518
59.9961
55.8406
51.6851
47.53
43.3751
39.2208
35.0673
30.9151
26.7646
22.6167
18.4722
14.3325
10.1954
6.07245
1.95499
422.28
413.739
409.478
404.097
399.411
394.612
390.016
385.474
381.025
376.631
372.289
367.985
363.714
359.467
355.241
351.031
346.834
342.646
338.466
334.292
330.123
325.957
321.794
317.633
313.473
309.314
305.156
300.999
296.842
292.686
288.529
284.373
280.217
276.061
271.905
267.749
263.593
259.437
255.281
251.126
246.97
242.814
238.658
234.502
230.347
226.191
222.035
217.879
213.723
209.568
205.412
201.256
197.1
192.944
188.789
184.633
180.477
176.321
172.165
168.009
163.854
159.698
155.542
151.386
147.23
143.074
138.919
134.763
130.607
126.451
122.295
118.139
113.983
109.828
105.672
101.516
97.3601
93.2042
89.0484
84.8925
80.7367
76.5808
72.425
68.2692
64.1135
59.9578
55.8022
51.6468
47.4916
43.3368
39.1825
35.029
30.8767
26.7262
22.5784
18.4339
14.2942
10.1566
6.03474
1.92173
422.619
413.628
409.413
404.051
399.367
394.573
389.976
385.436
380.987
376.593
372.252
367.948
363.677
359.43
355.204
350.994
346.797
342.61
338.43
334.256
330.087
325.921
321.758
317.596
313.437
309.278
305.12
300.963
296.806
292.649
288.493
284.337
280.181
276.024
271.869
267.713
263.557
259.401
255.245
251.089
246.933
242.778
238.622
234.466
230.31
226.154
221.999
217.843
213.687
209.531
205.375
201.22
197.064
192.908
188.752
184.596
180.441
176.285
172.129
167.973
163.817
159.661
155.506
151.35
147.194
143.038
138.882
134.726
130.57
126.415
122.259
118.103
113.947
109.791
105.635
101.48
97.3237
93.1678
89.012
84.8561
80.7003
76.5444
72.3886
68.2328
64.0771
59.9214