/*--------------------------------*- C++ -*----------------------------------*\
| =========                 |                                                 |
| \\      /  F ield         | OpenFOAM: The Open Source CFD Toolbox           |
|  \\    /   O peration     | Version:  v1906                                 |
|   \\  /    A nd           | Web:      www.OpenFOAM.com                      |
|    \\/     M anipulation  |                                                 |
\*---------------------------------------------------------------------------*/
FoamFile
{
    version     2.0;
    format      ascii;
    class       volScalarField;
    location    "1";
    object      pB;
}
// * * * * * * * * * * * * * * * * * * * * * * * * * * * * * * * * * * * * * //

dimensions      [1 1 -3 0 0 -1 0];


internalField   nonuniform List<scalar> 
4000
(
26.4262
60.5072
78.6755
84.7187
83.646
77.9668
70.0448
61.2246
52.4259
44.145
36.6565
30.0684
24.3949
19.5908
15.5795
12.2697
9.56667
7.37926
5.62363
4.22504
3.11851
2.24856
1.5686
1.03998
0.631133
0.316348
0.0750578
-0.109147
-0.249266
-0.355466
-0.435694
-0.496146
-0.541538
-0.575555
-0.600978
-0.619926
-0.634028
-0.644502
-0.652244
-0.657987
-0.662211
-0.665324
-0.667614
-0.669285
-0.670498
-0.671391
-0.672012
-0.672468
-0.672777
-0.672989
-0.673126
-0.673215
-0.673255
-0.673279
-0.673275
-0.673267
-0.673243
-0.673216
-0.673175
-0.67314
-0.673087
-0.673043
-0.672985
-0.672928
-0.672864
-0.672795
-0.672709
-0.672611
-0.672481
-0.672321
-0.672104
-0.671832
-0.671464
-0.670987
-0.670342
-0.669489
-0.668344
-0.666813
-0.664757
-0.662006
-0.658314
-0.653393
-0.646832
-0.638146
-0.626691
-0.611709
-0.592269
-0.567331
-0.535778
-0.496569
-0.449011
-0.393216
-0.330932
-0.266789
-0.210202
-0.177322
-0.190755
-0.268698
-0.382073
-0.370361
28.6108
60.5717
77.9973
83.976
82.9364
77.3556
69.529
60.7994
52.0792
43.8668
36.4366
29.8978
24.2655
19.4954
15.5119
12.2246
9.53962
7.36653
5.62218
4.23242
3.13273
2.26805
1.59212
1.06658
0.660055
0.347026
0.107053
-0.076164
-0.215547
-0.321199
-0.401019
-0.46117
-0.506338
-0.540189
-0.56549
-0.584348
-0.598381
-0.608808
-0.616514
-0.62223
-0.626436
-0.629533
-0.631812
-0.633476
-0.634682
-0.63557
-0.636188
-0.63664
-0.636948
-0.637159
-0.637295
-0.637384
-0.637424
-0.637449
-0.637444
-0.637436
-0.637411
-0.637384
-0.637343
-0.637308
-0.637254
-0.63721
-0.637153
-0.637097
-0.637032
-0.636964
-0.636877
-0.636779
-0.636649
-0.63649
-0.636274
-0.636003
-0.635636
-0.635162
-0.63452
-0.633671
-0.632532
-0.631008
-0.628963
-0.626226
-0.622553
-0.617658
-0.611133
-0.602495
-0.591106
-0.576214
-0.556897
-0.532125
-0.500796
-0.461888
-0.414728
-0.359448
-0.297788
-0.234311
-0.178162
-0.144687
-0.154516
-0.221643
-0.314539
-0.297076
29.9592
60.5085
77.0255
82.8419
81.813
76.3531
68.6624
60.0701
51.475
43.3748
36.0425
29.5879
24.0269
19.3165
15.3822
12.1351
9.48261
7.33555
5.61188
4.2384
3.15144
2.29664
1.62834
1.10864
0.706584
0.39695
0.159544
-0.0217359
-0.159662
-0.264225
-0.343228
-0.402771
-0.447485
-0.480998
-0.506049
-0.524723
-0.538616
-0.548942
-0.556574
-0.562235
-0.5664
-0.569466
-0.571723
-0.57337
-0.574562
-0.575441
-0.576051
-0.576498
-0.576802
-0.577011
-0.577146
-0.577235
-0.577275
-0.577299
-0.577294
-0.577285
-0.577259
-0.577232
-0.57719
-0.577154
-0.577101
-0.577058
-0.577001
-0.576945
-0.57688
-0.576812
-0.576725
-0.576627
-0.576497
-0.57634
-0.576125
-0.575857
-0.575493
-0.575024
-0.574389
-0.573548
-0.57242
-0.570913
-0.568888
-0.56618
-0.562545
-0.557702
-0.551247
-0.542704
-0.531442
-0.51672
-0.49763
-0.473161
-0.442232
-0.403846
-0.357352
-0.302897
-0.242182
-0.179604
-0.123813
-0.0888454
-0.0925657
-0.143859
-0.211542
-0.186188
30.0971
59.9695
75.6065
81.1887
80.1607
74.8515
67.3462
58.9468
50.5322
42.596
35.408
29.0785
23.624
19.0028
15.1426
11.9561
9.35282
7.24529
5.55308
4.20447
3.137
2.29738
1.64083
1.13017
0.735029
0.43067
0.197268
0.0190171
-0.116626
-0.219475
-0.297193
-0.355776
-0.399772
-0.432751
-0.457406
-0.475785
-0.489457
-0.499623
-0.507135
-0.512708
-0.516808
-0.519826
-0.522046
-0.523667
-0.524838
-0.525701
-0.5263
-0.526738
-0.527037
-0.527242
-0.527375
-0.527462
-0.527501
-0.527526
-0.52752
-0.52751
-0.527483
-0.527455
-0.527412
-0.527376
-0.527323
-0.52728
-0.527224
-0.527169
-0.527103
-0.527036
-0.526948
-0.526851
-0.526721
-0.526566
-0.526354
-0.52609
-0.525731
-0.525269
-0.524645
-0.523818
-0.522708
-0.521225
-0.519233
-0.516569
-0.512995
-0.508233
-0.501887
-0.493492
-0.482426
-0.467967
-0.449224
-0.425213
-0.394882
-0.357269
-0.311748
-0.258469
-0.199061
-0.137647
-0.0821434
-0.0447857
-0.0399748
-0.0710313
-0.109499
-0.0720895
29.3434
58.8317
73.7102
79.0262
77.999
72.8669
65.5926
57.4384
49.2574
41.535
34.5366
28.3718
23.058
18.5552
14.7932
11.6873
9.14957
7.09475
5.4446
4.12927
3.08795
2.26875
1.62802
1.12956
0.743773
0.446563
0.218597
0.044464
-0.0880691
-0.18858
-0.264542
-0.32181
-0.364825
-0.397071
-0.421181
-0.439155
-0.452526
-0.462469
-0.469817
-0.475268
-0.479279
-0.482229
-0.484399
-0.485984
-0.487126
-0.487967
-0.488551
-0.488978
-0.489269
-0.489469
-0.489598
-0.489684
-0.489722
-0.489747
-0.48974
-0.489729
-0.4897
-0.48967
-0.489626
-0.48959
-0.489537
-0.489494
-0.489439
-0.489385
-0.489319
-0.489252
-0.489165
-0.489068
-0.488939
-0.488786
-0.488579
-0.48832
-0.487968
-0.487517
-0.486906
-0.486098
-0.485012
-0.483563
-0.481616
-0.479013
-0.47552
-0.470868
-0.464671
-0.456475
-0.445675
-0.431567
-0.413289
-0.389887
-0.360347
-0.323746
-0.279486
-0.227711
-0.169937
-0.109922
-0.0546498
-0.0142111
0.0008059
-0.00756993
-0.0150775
0.0338992
28.0632
57.1039
71.3308
76.3755
75.3569
70.4266
63.4256
55.5657
47.6688
40.2081
33.4428
27.4811
22.341
17.9846
14.3443
11.3385
8.88211
6.89284
5.29507
4.02124
3.01258
2.2189
1.598
1.11486
0.740838
0.45263
0.231516
0.0625814
-0.0660208
-0.163572
-0.237308
-0.292909
-0.334677
-0.365992
-0.389408
-0.406868
-0.419855
-0.429514
-0.436652
-0.441948
-0.445844
-0.448709
-0.450814
-0.452353
-0.453459
-0.454273
-0.454838
-0.455251
-0.455532
-0.455726
-0.455851
-0.455935
-0.45597
-0.455994
-0.455986
-0.455973
-0.455942
-0.455911
-0.455866
-0.455829
-0.455777
-0.455734
-0.455679
-0.455626
-0.45556
-0.455494
-0.455407
-0.455311
-0.455184
-0.455034
-0.454831
-0.454579
-0.454237
-0.453798
-0.453205
-0.452421
-0.451366
-0.449959
-0.448068
-0.445542
-0.442152
-0.437639
-0.431629
-0.423683
-0.413216
-0.399549
-0.381849
-0.359202
-0.330639
-0.295277
-0.25255
-0.202581
-0.146746
-0.0883555
-0.0333291
0.0105864
0.0366758
0.051781
0.0751534
0.13141
26.4789
54.8417
68.4764
73.2569
72.2592
67.5552
60.8666
53.347
45.7818
38.6283
32.1376
26.4158
21.4812
17.2982
13.8023
10.9152
8.5554
6.64408
5.10865
3.88429
2.9146
2.15142
1.55425
1.08946
0.729563
0.452172
0.239303
0.0766284
-0.0472337
-0.14121
-0.212256
-0.26584
-0.306098
-0.336283
-0.358859
-0.375693
-0.388214
-0.397529
-0.404412
-0.409518
-0.413275
-0.416036
-0.418063
-0.419546
-0.420608
-0.421391
-0.421933
-0.422328
-0.422597
-0.422784
-0.422903
-0.422984
-0.423017
-0.423039
-0.423029
-0.423014
-0.422981
-0.422949
-0.422902
-0.422866
-0.422813
-0.422771
-0.422717
-0.422664
-0.422598
-0.422533
-0.422445
-0.422351
-0.422226
-0.42208
-0.421883
-0.42164
-0.421309
-0.420885
-0.420314
-0.419557
-0.41854
-0.417184
-0.41536
-0.412926
-0.409662
-0.405316
-0.39953
-0.391883
-0.381814
-0.368673
-0.351664
-0.329914
-0.302503
-0.268599
-0.227659
-0.179782
-0.126171
-0.0696424
-0.0149724
0.0324889
0.0697465
0.107787
0.160189
0.218242
24.7178
52.1147
65.1668
69.6913
68.7294
64.2753
57.9356
50.7992
43.6106
36.8073
30.6308
25.1838
20.485
16.5012
13.1711
10.4205
8.17202
6.35053
4.887
3.71976
2.79512
2.06723
1.49754
1.05404
0.710545
0.445731
0.24246
0.0870823
-0.0312488
-0.12105
-0.188949
-0.24017
-0.278658
-0.307519
-0.329106
-0.345207
-0.357181
-0.366091
-0.372673
-0.377557
-0.38115
-0.383789
-0.385724
-0.387141
-0.388152
-0.388898
-0.389414
-0.389789
-0.390044
-0.390222
-0.390334
-0.390411
-0.390441
-0.390461
-0.390449
-0.390432
-0.390397
-0.390363
-0.390315
-0.390278
-0.390226
-0.390184
-0.39013
-0.390078
-0.390012
-0.389947
-0.389861
-0.389769
-0.389646
-0.389505
-0.389314
-0.389081
-0.388764
-0.388358
-0.38781
-0.387087
-0.386112
-0.384815
-0.383071
-0.380744
-0.377625
-0.373473
-0.367949
-0.360649
-0.351042
-0.33851
-0.322298
-0.301582
-0.275493
-0.24325
-0.204338
-0.158819
-0.10771
-0.0533015
0.000792255
0.0515438
0.0993563
0.158555
0.236502
0.291328
22.855
48.9945
61.4314
65.7034
64.7922
60.611
54.654
47.9405
41.1703
34.7577
28.9325
23.7934
19.359
15.5987
12.4549
9.85783
7.73449
6.01412
4.63161
3.52878
2.65497
1.96695
1.42835
1.00895
0.684044
0.433498
0.24113
0.0940517
-0.0179827
-0.103024
-0.167335
-0.215857
-0.252323
-0.279668
-0.300124
-0.315384
-0.326733
-0.335178
-0.341416
-0.346044
-0.349449
-0.351949
-0.353779
-0.355119
-0.356074
-0.356778
-0.357263
-0.357616
-0.357855
-0.358022
-0.358127
-0.358199
-0.358225
-0.358243
-0.358228
-0.358208
-0.358171
-0.358136
-0.358087
-0.358049
-0.357997
-0.357955
-0.357901
-0.35785
-0.357784
-0.35772
-0.357635
-0.357545
-0.357426
-0.357289
-0.357107
-0.356885
-0.356583
-0.356197
-0.355676
-0.35499
-0.354065
-0.352835
-0.35118
-0.348976
-0.346022
-0.342091
-0.336862
-0.329957
-0.320872
-0.309028
-0.293715
-0.274162
-0.249555
-0.219165
-0.182504
-0.139595
-0.0912584
-0.0392577
0.013921
0.0673894
0.124494
0.201975
0.300775
0.348549
20.9347
45.5477
57.3063
61.3214
60.4742
56.5876
51.0443
44.7906
38.4774
32.4931
27.0539
22.2537
18.1106
14.5967
11.6584
9.23081
7.24573
5.63714
4.34423
3.31269
2.4952
1.85139
1.34729
0.954665
0.650422
0.415758
0.235541
0.09772
-0.00728426
-0.0870075
-0.147304
-0.192805
-0.227006
-0.252653
-0.271842
-0.286157
-0.296804
-0.304728
-0.310579
-0.314918
-0.318112
-0.320455
-0.322168
-0.323422
-0.324314
-0.324971
-0.325423
-0.32575
-0.325972
-0.326127
-0.326222
-0.326289
-0.326311
-0.326325
-0.326307
-0.326284
-0.326245
-0.326208
-0.326158
-0.32612
-0.326068
-0.326026
-0.325972
-0.325922
-0.325856
-0.325793
-0.325709
-0.325622
-0.325507
-0.325376
-0.325203
-0.324993
-0.324708
-0.324344
-0.323854
-0.323209
-0.322339
-0.321184
-0.319629
-0.317561
-0.314791
-0.311105
-0.306207
-0.299739
-0.291235
-0.280154
-0.265835
-0.247564
-0.224586
-0.196226
-0.162024
-0.121961
-0.0766641
-0.0273908
0.0244149
0.0797338
0.144308
0.236347
0.350594
0.388918
18.9818
41.8325
52.8309
56.5766
55.8037
52.2316
47.1306
41.3704
35.5497
30.0284
25.0075
20.5747
16.748
13.5017
10.7869
8.5436
6.70898
5.22209
4.02681
3.073
2.31697
1.72145
1.25505
0.891706
0.610092
0.392833
0.225944
0.0982867
0.00100741
-0.0728671
-0.128747
-0.170922
-0.202627
-0.226404
-0.244194
-0.257467
-0.267338
-0.274686
-0.280109
-0.28413
-0.287089
-0.289259
-0.290843
-0.292002
-0.292824
-0.29343
-0.293845
-0.294145
-0.294347
-0.294489
-0.294574
-0.294634
-0.294651
-0.29466
-0.29464
-0.294614
-0.294573
-0.294534
-0.294484
-0.294444
-0.294392
-0.29435
-0.294296
-0.294247
-0.294182
-0.294119
-0.294037
-0.293953
-0.293843
-0.293718
-0.293555
-0.293358
-0.293092
-0.292753
-0.292295
-0.291696
-0.290886
-0.289813
-0.288369
-0.28645
-0.283881
-0.280466
-0.275928
-0.26994
-0.26207
-0.251821
-0.238585
-0.221707
-0.200493
-0.174325
-0.142773
-0.105778
-0.063784
-0.0175874
0.0322825
0.0883407
0.158127
0.26042
0.38441
0.412273
17.0097
37.8982
48.0455
51.5019
50.8108
47.571
42.9382
37.7019
32.4062
27.3795
22.8063
18.7674
15.2799
12.3209
9.84601
7.80067
6.12776
4.77175
3.68152
2.81139
2.12157
1.5781
1.15238
0.820658
0.563498
0.365062
0.212601
0.0959546
0.00705053
-0.0604782
-0.111564
-0.150125
-0.179119
-0.200862
-0.217132
-0.229271
-0.238298
-0.245017
-0.249975
-0.253649
-0.256351
-0.258332
-0.259776
-0.260832
-0.261578
-0.262128
-0.262504
-0.262775
-0.262956
-0.263083
-0.263157
-0.263209
-0.263219
-0.263224
-0.2632
-0.263172
-0.263129
-0.263088
-0.263037
-0.262996
-0.262944
-0.262902
-0.262848
-0.2628
-0.262735
-0.262674
-0.262594
-0.262512
-0.262408
-0.262291
-0.262138
-0.261955
-0.261709
-0.261397
-0.260975
-0.260423
-0.259679
-0.258695
-0.257371
-0.255613
-0.253263
-0.250139
-0.245993
-0.240522
-0.233336
-0.223983
-0.211911
-0.196526
-0.177199
-0.153373
-0.124646
-0.0909255
-0.052494
-0.00974617
0.0375427
0.0930461
0.165484
0.273404
0.401455
0.419039
15.0259
33.7859
42.9897
46.132
45.5269
42.6351
38.4935
33.8085
29.0668
24.5634
20.4643
16.8432
13.7158
11.0618
8.84179
7.00688
5.50592
4.28912
3.3107
2.52969
1.91042
1.42244
1.04012
0.742163
0.511132
0.332824
0.1958
0.0909457
0.0110163
-0.0497076
-0.09565
-0.130333
-0.156414
-0.175973
-0.190609
-0.201529
-0.209647
-0.215691
-0.220147
-0.223448
-0.225874
-0.227652
-0.228944
-0.229889
-0.230555
-0.231045
-0.231378
-0.231618
-0.231776
-0.231887
-0.231948
-0.231992
-0.231996
-0.231995
-0.231968
-0.231936
-0.231891
-0.231849
-0.231797
-0.231755
-0.231703
-0.231661
-0.231607
-0.231559
-0.231496
-0.231435
-0.231358
-0.23128
-0.231182
-0.231072
-0.230931
-0.230763
-0.230538
-0.230254
-0.22987
-0.229371
-0.228696
-0.227807
-0.226612
-0.225027
-0.222911
-0.220099
-0.216369
-0.211451
-0.204995
-0.196597
-0.185761
-0.171961
-0.154634
-0.133283
-0.107541
-0.0772881
-0.0426698
-0.00375612
0.0402527
0.0937925
0.166158
0.274981
0.401672
0.410089
13.0342
29.5302
37.7018
40.5021
39.9843
37.4537
33.8237
29.7144
25.5524
21.5975
17.9964
14.8143
12.0655
9.73251
7.78075
6.16739
4.84753
3.77744
2.91688
2.22986
1.68504
1.25566
0.919192
0.656929
0.453538
0.296536
0.175864
0.0835071
0.0130955
-0.0404071
-0.080889
-0.111453
-0.134439
-0.151677
-0.164575
-0.174198
-0.18135
-0.186673
-0.190596
-0.193499
-0.195631
-0.197192
-0.198324
-0.199152
-0.199731
-0.200157
-0.200446
-0.200652
-0.200786
-0.20088
-0.200928
-0.200962
-0.200959
-0.200952
-0.200921
-0.200886
-0.200839
-0.200795
-0.200743
-0.2007
-0.200648
-0.200605
-0.200551
-0.200504
-0.200442
-0.200383
-0.200309
-0.200235
-0.200144
-0.200042
-0.199912
-0.19976
-0.199557
-0.199303
-0.198959
-0.198515
-0.197914
-0.197126
-0.196068
-0.194666
-0.192797
-0.190315
-0.187027
-0.182693
-0.177006
-0.169615
-0.160082
-0.147948
-0.132721
-0.113965
-0.0913516
-0.064743
-0.0341775
0.000516145
0.0405238
0.0906471
0.160187
0.2653
0.385638
0.386643
11.0369
25.1595
32.2181
34.6475
34.2163
32.0582
28.9572
25.4444
21.8846
18.5004
15.4179
12.6934
10.3395
8.34146
6.6697
5.28767
4.15697
3.24015
2.50278
1.91404
1.44709
1.07904
0.790592
0.565724
0.391309
0.256654
0.153144
0.0739103
0.0134986
-0.0324132
-0.0671527
-0.0933834
-0.113111
-0.127905
-0.138975
-0.147231
-0.153364
-0.157929
-0.161289
-0.163774
-0.165595
-0.166928
-0.167891
-0.168594
-0.169083
-0.169442
-0.169684
-0.169855
-0.169964
-0.170038
-0.170073
-0.170096
-0.170086
-0.170073
-0.170038
-0.169999
-0.16995
-0.169905
-0.169851
-0.169808
-0.169756
-0.169712
-0.169659
-0.169612
-0.169551
-0.169495
-0.169424
-0.169354
-0.169269
-0.169176
-0.169059
-0.168923
-0.168744
-0.168521
-0.168219
-0.167832
-0.167309
-0.166627
-0.165712
-0.164503
-0.162893
-0.160758
-0.157932
-0.15421
-0.14933
-0.142991
-0.134818
-0.124423
-0.111382
-0.0953258
-0.0759669
-0.0531613
-0.0268714
0.00322954
0.0385257
0.0838067
0.147862
0.244936
0.354475
0.350191
9.03552
20.6981
26.5728
28.6038
28.257
26.4801
23.923
21.0246
18.0859
15.2912
12.7449
10.4938
8.54875
6.89752
5.51581
4.37345
3.43879
2.68087
2.07125
1.58446
1.19834
0.893955
0.655382
0.469372
0.325081
0.21367
0.128019
0.0624487
0.0124526
-0.0255488
-0.0543023
-0.0760146
-0.0923436
-0.104588
-0.113748
-0.120579
-0.125647
-0.12942
-0.132192
-0.13424
-0.135737
-0.13683
-0.137617
-0.13819
-0.138585
-0.138875
-0.139067
-0.139201
-0.139284
-0.139339
-0.139359
-0.139371
-0.139352
-0.139333
-0.139294
-0.139252
-0.139201
-0.139154
-0.1391
-0.139056
-0.139003
-0.138959
-0.138906
-0.13886
-0.1388
-0.138746
-0.138679
-0.138613
-0.138536
-0.138452
-0.138348
-0.138228
-0.138073
-0.137882
-0.137624
-0.137297
-0.136856
-0.136284
-0.135519
-0.134509
-0.13317
-0.131395
-0.129049
-0.125964
-0.121919
-0.116672
-0.10991
-0.101314
-0.0905343
-0.0772677
-0.0612713
-0.0424076
-0.0205941
0.00456893
0.0344871
0.0735929
0.129713
0.214853
0.309769
0.302432
7.03086
16.1666
20.7982
22.406
22.1407
20.7519
18.7507
16.4812
14.1793
11.9896
9.99387
8.22935
6.70449
5.40987
4.32648
3.4307
2.69776
2.10338
1.62528
1.24348
0.940611
0.701842
0.514681
0.368742
0.255528
0.168106
0.100893
0.0494346
0.0102
-0.0196254
-0.0421898
-0.0592294
-0.0720427
-0.0816485
-0.0888324
-0.0941869
-0.0981541
-0.101106
-0.103269
-0.104865
-0.106026
-0.106871
-0.107475
-0.107914
-0.108212
-0.108429
-0.10857
-0.108667
-0.108722
-0.108758
-0.108761
-0.108762
-0.108735
-0.108708
-0.108665
-0.10862
-0.108567
-0.108519
-0.108463
-0.108419
-0.108366
-0.108322
-0.108268
-0.108223
-0.108165
-0.108113
-0.10805
-0.10799
-0.107919
-0.107845
-0.107754
-0.107651
-0.10752
-0.107363
-0.10715
-0.106885
-0.106527
-0.10607
-0.105459
-0.104656
-0.103595
-0.102192
-0.100342
-0.0979123
-0.0947304
-0.0906075
-0.0852959
-0.0785498
-0.0700929
-0.0596894
-0.0471456
-0.0323406
-0.0151766
0.00474422
0.0286922
0.0604436
0.106485
0.17635
0.253482
0.245228
5.02373
11.5831
14.9249
16.0889
15.9021
14.9065
13.4705
11.8413
10.1883
8.61544
7.18173
5.91394
4.81826
3.88795
3.10936
2.46555
1.93879
1.51159
1.16796
0.89354
0.675833
0.504198
0.369658
0.264744
0.183355
0.120508
0.0721894
0.0351962
0.00699558
-0.0144445
-0.0306594
-0.0429048
-0.0521097
-0.0590069
-0.0641617
-0.0680006
-0.0708367
-0.0729458
-0.0744836
-0.0756139
-0.0764308
-0.0770214
-0.0774373
-0.0777388
-0.0779364
-0.07808
-0.0781683
-0.0782268
-0.0782534
-0.0782677
-0.0782556
-0.0782439
-0.0782084
-0.0781746
-0.0781268
-0.0780786
-0.0780239
-0.0779739
-0.0779177
-0.0778718
-0.0778187
-0.0777744
-0.0777204
-0.0776762
-0.0776203
-0.0775717
-0.0775127
-0.0774573
-0.0773941
-0.0773293
-0.077252
-0.0771671
-0.0770602
-0.0769368
-0.0767702
-0.0765685
-0.0762975
-0.0759565
-0.0755038
-0.0749137
-0.0741376
-0.073116
-0.0717726
-0.0700146
-0.0677148
-0.0647417
-0.060913
-0.0560562
-0.04997
-0.0424875
-0.0334669
-0.0228138
-0.0104399
0.003988
0.021475
0.044898
0.0791067
0.131005
0.187882
0.180559
3.01486
6.9637
8.9822
9.6869
9.57591
8.97718
8.11285
7.132
6.13661
5.18935
4.32572
3.56198
2.9019
2.3414
1.87226
1.48431
1.16691
0.909516
0.702472
0.537144
0.405975
0.302571
0.22152
0.158318
0.109294
0.0714437
0.0423477
0.0200747
0.00310415
-0.0097994
-0.0195493
-0.0269124
-0.0324422
-0.0365801
-0.0396677
-0.0419623
-0.043646
-0.044896
-0.0457962
-0.0464528
-0.0469186
-0.0472497
-0.0474742
-0.0476353
-0.0477313
-0.0477997
-0.0478342
-0.0478533
-0.047851
-0.0478437
-0.0478153
-0.0477911
-0.0477467
-0.0477058
-0.0476534
-0.0476021
-0.0475454
-0.0474942
-0.047437
-0.0473901
-0.0473364
-0.047292
-0.0472382
-0.0471949
-0.047141
-0.0470955
-0.0470411
-0.0469909
-0.046935
-0.0468799
-0.0468162
-0.0467493
-0.0466671
-0.046578
-0.0464586
-0.0463215
-0.0461383
-0.0459161
-0.0456245
-0.0452503
-0.0447644
-0.0441305
-0.0433028
-0.0422274
-0.0408241
-0.0390191
-0.0366962
-0.0337571
-0.030076
-0.0255559
-0.0201095
-0.0136762
-0.00619608
0.00255192
0.0132106
0.0275789
0.0486552
0.0806146
0.115469
0.110498
1.00494
2.32324
2.99819
3.23408
3.19722
2.99734
2.7087
2.38106
2.04849
1.73198
1.44329
1.188
0.967381
0.780008
0.623123
0.493358
0.38726
0.301236
0.232066
0.176856
0.133055
0.0985413
0.0715043
0.0504271
0.0340932
0.0214938
0.0118188
0.00441991
-0.00120207
-0.00547805
-0.00869292
-0.0111207
-0.0129349
-0.0142827
-0.01528
-0.0160129
-0.0165316
-0.016913
-0.0171682
-0.0173456
-0.0174565
-0.0175252
-0.0175563
-0.0175752
-0.0175685
-0.0175611
-0.0175411
-0.0175202
-0.0174885
-0.0174592
-0.0174145
-0.0173773
-0.017324
-0.017276
-0.0172191
-0.0171645
-0.017106
-0.0170535
-0.0169954
-0.0169474
-0.0168932
-0.0168486
-0.0167952
-0.0167527
-0.0167011
-0.0166587
-0.0166091
-0.0165644
-0.0165157
-0.0164703
-0.0164203
-0.0163716
-0.0163144
-0.0162597
-0.016188
-0.016116
-0.0160217
-0.0159195
-0.0157906
-0.0156348
-0.0154419
-0.0151996
-0.014893
-0.0145068
-0.0140088
-0.0133827
-0.0125796
-0.0115751
-0.0103199
-0.00878723
-0.00694567
-0.0047733
-0.0022506
0.000702061
0.00430537
0.00917062
0.0163158
0.0271336
0.0389038
0.0371784
-1.00533
-2.32415
-2.9995
-3.23564
-3.19899
-2.99935
-2.711
-2.3838
-2.05182
-1.73585
-1.44796
-1.19334
-0.973206
-0.786344
-0.630038
-0.500834
-0.394991
-0.309115
-0.239985
-0.18473
-0.140888
-0.10629
-0.0791386
-0.0579526
-0.0414877
-0.028751
-0.0189394
-0.0114124
-0.00564652
-0.00126469
0.00207886
0.00460426
0.006519
0.00797169
0.00907243
0.00990713
0.0105576
0.0110481
0.0114403
0.0117439
0.011989
0.0121836
0.0123464
0.0124703
0.0125801
0.0126636
0.0127384
0.0127997
0.0128608
0.0129124
0.0129735
0.0130237
0.0130859
0.0131411
0.0132024
0.0132602
0.0133206
0.0133742
0.0134331
0.0134823
0.0135371
0.0135819
0.0136347
0.0136763
0.0137255
0.0137648
0.0138095
0.0138486
0.0138899
0.0139258
0.0139622
0.0139925
0.0140248
0.0140451
0.0140689
0.0140756
0.0140805
0.0140625
0.0140281
0.0139649
0.0138637
0.0137129
0.0134969
0.0131914
0.0127812
0.0122247
0.0115033
0.0105677
0.00939019
0.00792702
0.00615349
0.00405114
0.00159511
-0.00128657
-0.00481542
-0.00960472
-0.01666
-0.027388
-0.0390564
-0.0372317
-3.01524
-6.9646
-8.98351
-9.68846
-9.57769
-8.97921
-8.11516
-7.13475
-6.13996
-5.19325
-4.33041
-3.56734
-2.90774
-2.34775
-1.87918
-1.49178
-1.17464
-0.917392
-0.710388
-0.545014
-0.413803
-0.310316
-0.229151
-0.16584
-0.116685
-0.0786978
-0.0494662
-0.027065
-0.00995119
0.00305754
0.0129362
0.020397
0.0260272
0.0302702
0.0334613
0.0358578
0.037673
0.0390319
0.040069
0.0408519
0.0414515
0.0419083
0.0422641
0.0425302
0.0427427
0.0429021
0.0430316
0.0431333
0.0432238
0.0432979
0.0433752
0.0434385
0.0435095
0.0435717
0.0436373
0.0436982
0.0437604
0.0438153
0.0438748
0.0439252
0.0439805
0.0440257
0.0440777
0.0441184
0.044165
0.0442013
0.044241
0.0442745
0.0443084
0.0443347
0.0443577
0.0443699
0.0443771
0.0443634
0.0443394
0.0442812
0.0441969
0.0440591
0.0438621
0.0435805
0.0431863
0.0426435
0.0419065
0.0409117
0.0395961
0.0378609
0.0356197
0.0327497
0.0291463
0.0246956
0.0193174
0.0129542
0.00554102
-0.00313592
-0.01372
-0.0280121
-0.0489986
-0.0808683
-0.115622
-0.110551
-5.0241
-11.584
-14.9262
-16.0905
-15.9039
-14.9086
-13.4728
-11.844
-10.1917
-8.61937
-7.18645
-5.91932
-4.82412
-3.89432
-3.11629
-2.47303
-1.94652
-1.51946
-1.17586
-0.901402
-0.683651
-0.511935
-0.37728
-0.272259
-0.19074
-0.127756
-0.0793037
-0.0421823
-0.0138396
0.00770435
0.0240482
0.0363913
0.0456965
0.0526994
0.0579577
0.0618989
0.0648656
0.067083
0.0687576
0.0700144
0.0709643
0.0716803
0.0722267
0.0726335
0.0729477
0.073182
0.0733658
0.0735077
0.0736274
0.0737237
0.0738171
0.0738933
0.0739729
0.074042
0.0741117
0.0741757
0.0742398
0.0742958
0.0743558
0.0744073
0.0744632
0.0745088
0.0745599
0.0745996
0.0746436
0.0746769
0.0747118
0.0747396
0.0747662
0.074783
0.0747927
0.0747869
0.0747693
0.074722
0.0746507
0.0745283
0.0743558
0.0740995
0.0737418
0.0732439
0.0725596
0.0716288
0.0703759
0.0686984
0.0664859
0.0635833
0.059836
0.0550487
0.0490402
0.0416271
0.0326751
0.0220924
0.0097857
-0.004571
-0.021983
-0.0453294
-0.0794485
-0.131257
-0.188034
-0.180612
-7.03122
-16.1675
-20.7995
-22.4076
-22.1425
-20.754
-18.7531
-16.4841
-14.1828
-11.9935
-9.99862
-8.23476
-6.71038
-5.41627
-4.33343
-3.43818
-2.70548
-2.11124
-1.63317
-1.25133
-0.948416
-0.709566
-0.522291
-0.376246
-0.262903
-0.175345
-0.108001
-0.0564144
-0.0170397
0.012888
0.0355814
0.0527187
0.0656323
0.0753443
0.0826318
0.0880889
0.0921858
0.0952454
0.0975456
0.0992671
0.100561
0.101531
0.102264
0.102809
0.103223
0.103531
0.103768
0.10395
0.104098
0.104216
0.104325
0.104414
0.104502
0.104578
0.104652
0.104718
0.104784
0.104842
0.104902
0.104955
0.105011
0.105057
0.105107
0.105146
0.105187
0.105217
0.105248
0.10527
0.105289
0.105297
0.105293
0.10527
0.105228
0.105148
0.10503
0.104845
0.104585
0.104213
0.103697
0.102987
0.102017
0.100705
0.0989443
0.0965954
0.0935004
0.0894486
0.0842184
0.0775422
0.0691631
0.0588289
0.0463543
0.0316198
0.0145236
-0.00532579
-0.0291983
-0.0608724
-0.106824
-0.176601
-0.253632
-0.24528
-9.03586
-20.699
-26.5741
-28.6054
-28.2589
-26.4822
-23.9254
-21.0275
-18.0894
-15.2953
-12.7497
-10.4993
-8.5547
-6.90396
-5.52278
-4.38094
-3.44651
-2.68872
-2.07913
-1.5923
-1.20612
-0.901663
-0.662977
-0.476862
-0.332444
-0.220898
-0.135118
-0.0694206
-0.0192867
0.0188149
0.0476977
0.0695072
0.0859369
0.0982879
0.107552
0.114485
0.119683
0.123562
0.126471
0.128645
0.130273
0.13149
0.132405
0.133084
0.133596
0.133975
0.134265
0.134485
0.134662
0.134801
0.134926
0.135027
0.135123
0.135205
0.135283
0.135352
0.13542
0.135478
0.135539
0.135592
0.135649
0.135696
0.135745
0.135783
0.135821
0.135849
0.135875
0.135891
0.135903
0.135901
0.135886
0.135845
0.135779
0.135666
0.135503
0.135257
0.134913
0.134427
0.133758
0.13284
0.131592
0.129906
0.127651
0.124646
0.120688
0.115513
0.108832
0.100306
0.0896044
0.076407
0.0604805
0.0416875
0.0199425
-0.00514871
-0.0349908
-0.0740186
-0.130049
-0.215101
-0.309917
-0.302483
-11.0373
-25.1603
-32.2194
-34.6491
-34.2182
-32.0603
-28.9597
-25.4474
-21.8882
-18.5046
-15.4228
-12.6989
-10.3455
-8.34794
-6.67671
-5.29516
-4.16468
-3.24799
-2.51064
-1.92186
-1.45486
-1.08673
-0.798169
-0.573197
-0.398657
-0.263868
-0.160232
-0.0808728
-0.0203261
0.0256836
0.0605527
0.0868799
0.106709
0.12161
0.132784
0.141144
0.147404
0.152075
0.155572
0.158182
0.160133
0.161588
0.162679
0.163487
0.164093
0.164542
0.164883
0.16514
0.165344
0.165504
0.165644
0.165756
0.16586
0.165948
0.16603
0.166101
0.166171
0.166231
0.166292
0.166346
0.166403
0.16645
0.166499
0.166535
0.166571
0.166595
0.166617
0.166628
0.166634
0.166622
0.166595
0.166537
0.166448
0.166304
0.166097
0.165791
0.165366
0.16477
0.163952
0.162833
0.161316
0.159269
0.156532
0.152891
0.148097
0.14183
0.133739
0.123415
0.110452
0.0944651
0.0751768
0.052442
0.0262215
-0.00380725
-0.0390267
-0.084229
-0.148195
-0.24518
-0.354622
-0.350241
-13.0345
-29.531
-37.7031
-40.5037
-39.9861
-37.456
-33.8263
-29.7174
-25.556
-21.6017
-18.0013
-14.8198
-12.0715
-9.73905
-7.78779
-6.17488
-4.85523
-3.78526
-2.92472
-2.23766
-1.69278
-1.26332
-0.926746
-0.664382
-0.460869
-0.303734
-0.18294
-0.090459
-0.0199157
0.0336828
0.0742942
0.104954
0.128041
0.145387
0.15839
0.168116
0.175394
0.180823
0.184883
0.18791
0.19017
0.191853
0.193112
0.194044
0.194741
0.195256
0.195646
0.19594
0.19617
0.19635
0.196503
0.196626
0.196738
0.196832
0.196918
0.196991
0.197062
0.197123
0.197185
0.197239
0.197297
0.197344
0.197392
0.197427
0.19746
0.197482
0.1975
0.197506
0.197505
0.197484
0.197445
0.197371
0.19726
0.197086
0.196837
0.196474
0.195971
0.195269
0.194308
0.192996
0.191219
0.188825
0.185626
0.181373
0.175772
0.168454
0.159003
0.146941
0.131791
0.113104
0.0905623
0.0640246
0.0335294
-0.00109166
-0.0410218
-0.0910658
-0.160517
-0.265541
-0.385783
-0.386691
-15.0262
-33.7867
-42.991
-46.1336
-45.5288
-42.6374
-38.4961
-33.8117
-29.0706
-24.5677
-20.4693
-16.8488
-13.7219
-11.0684
-8.84887
-7.01438
-5.5136
-4.29692
-3.31851
-2.53746
-1.91813
-1.43008
-1.04765
-0.749595
-0.518444
-0.340005
-0.202863
-0.0978861
-0.0178283
0.0429893
0.089061
0.123838
0.150022
0.169689
0.18443
0.195453
0.203698
0.209846
0.214439
0.217862
0.220415
0.222314
0.223732
0.224781
0.225564
0.226143
0.22658
0.226908
0.227164
0.227362
0.227528
0.227662
0.22778
0.227879
0.227969
0.228044
0.228117
0.228179
0.228241
0.228296
0.228353
0.228401
0.228448
0.228482
0.228513
0.228532
0.228546
0.228547
0.22854
0.22851
0.22846
0.228371
0.228238
0.228035
0.227746
0.22733
0.226753
0.22595
0.224854
0.223357
0.221333
0.218607
0.214967
0.21013
0.203759
0.195435
0.184681
0.170953
0.153704
0.132422
0.106753
0.0765704
0.0420235
0.00318282
-0.0407478
-0.0942075
-0.166485
-0.275219
-0.401815
-0.410137
-17.01
-37.8989
-48.0467
-51.5035
-50.8128
-47.5734
-42.941
-37.7052
-32.4101
-27.384
-22.8114
-18.7731
-15.2861
-12.3276
-9.85312
-7.80817
-6.13544
-4.77952
-3.68931
-2.81914
-2.12926
-1.58571
-1.15988
-0.828066
-0.570789
-0.372225
-0.219649
-0.102883
-0.013854
0.0537665
0.104981
0.143635
0.172732
0.194584
0.210959
0.223202
0.232354
0.239178
0.244272
0.248066
0.250894
0.252996
0.254563
0.255722
0.256587
0.257226
0.257707
0.258067
0.258347
0.258563
0.258742
0.258884
0.259009
0.259112
0.259206
0.259283
0.259357
0.25942
0.259484
0.259539
0.259596
0.259644
0.259689
0.259722
0.259751
0.259767
0.259779
0.259775
0.259761
0.259724
0.259663
0.259559
0.259406
0.259176
0.258849
0.258383
0.257735
0.256838
0.255613
0.253943
0.251686
0.248647
0.244589
0.239199
0.232099
0.222822
0.210831
0.195519
0.17627
0.152512
0.123859
0.0902084
0.0518496
0.00917497
-0.0380349
-0.0934577
-0.165807
-0.273638
-0.401596
-0.419086
-18.9821
-41.8332
-52.8321
-56.5781
-55.8057
-52.234
-47.1335
-41.3738
-35.5537
-30.0329
-25.0127
-20.5806
-16.7543
-13.5085
-10.7941
-8.5511
-6.71664
-5.22983
-4.03457
-3.08072
-2.32463
-1.72904
-1.26252
-0.89909
-0.617361
-0.399975
-0.232976
-0.105202
-0.00780204
0.0661627
0.12217
0.164435
0.196246
0.220132
0.238027
0.251404
0.261401
0.268852
0.274412
0.278551
0.281634
0.283924
0.28563
0.286891
0.287833
0.288527
0.28905
0.28944
0.289742
0.289974
0.290164
0.290315
0.290446
0.290554
0.29065
0.290729
0.290805
0.290869
0.290933
0.290989
0.291045
0.291093
0.291138
0.29117
0.291197
0.29121
0.291219
0.29121
0.291192
0.291146
0.291075
0.290958
0.290785
0.29053
0.290168
0.289654
0.288942
0.287956
0.286612
0.284779
0.282304
0.278972
0.274524
0.268616
0.260832
0.250659
0.237505
0.2207
0.199564
0.173465
0.141987
0.105061
0.0631414
0.017018
-0.0327721
-0.0887491
-0.158447
-0.260651
-0.384549
-0.412319
-20.935
-45.5484
-57.3074
-61.323
-60.4762
-56.59
-51.0472
-44.7941
-38.4815
-32.4977
-27.0592
-22.2596
-18.117
-14.6035
-11.6656
-9.23831
-7.25337
-5.64486
-4.35196
-3.32037
-2.50283
-1.85896
-1.35474
-0.962023
-0.657668
-0.42288
-0.242558
-0.104622
0.000498603
0.0803108
0.140733
0.186323
0.220631
0.246387
0.26568
0.2801
0.290873
0.298901
0.304887
0.309342
0.312659
0.315122
0.316955
0.318311
0.319322
0.320069
0.320629
0.321048
0.32137
0.321617
0.321817
0.321976
0.322112
0.322223
0.322323
0.322404
0.322481
0.322546
0.322611
0.322667
0.322723
0.32277
0.322814
0.322845
0.32287
0.322881
0.322887
0.322875
0.322851
0.322798
0.322717
0.322587
0.322397
0.322119
0.321724
0.321167
0.320395