/*--------------------------------*- C++ -*----------------------------------*\
| =========                 |                                                 |
| \\      /  F ield         | OpenFOAM: The Open Source CFD Toolbox           |
|  \\    /   O peration     | Version:  v1906                                 |
|   \\  /    A nd           | Web:      www.OpenFOAM.com                      |
|    \\/     M anipulation  |                                                 |
\*---------------------------------------------------------------------------*/
FoamFile
{
    version     2.0;
    format      ascii;
    class       volScalarField;
    location    "1";
    object      pB;
}
// * * * * * * * * * * * * * * * * * * * * * * * * * * * * * * * * * * * * * //

dimensions      [1 1 -3 0 0 -1 0];


internalField   nonuniform List<scalar> 
4000
(
49.3686
80.3136
78.3188
61.5326
45.9671
31.3956
21.1934
13.4205
8.44179
4.96195
2.84565
1.43821
0.614849
0.0843913
-0.216117
-0.405933
-0.510441
-0.575765
-0.610757
-0.632571
-0.643914
-0.651008
-0.65457
-0.65681
-0.657885
-0.658559
-0.658843
-0.659024
-0.659072
-0.659103
-0.659088
-0.659071
-0.659035
-0.658997
-0.658949
-0.658904
-0.658853
-0.658814
-0.658778
-0.658749
-0.658719
-0.658689
-0.658657
-0.658636
-0.658614
-0.658595
-0.658572
-0.658556
-0.658532
-0.658518
-0.658502
-0.658492
-0.658484
-0.658484
-0.658474
-0.658476
-0.658467
-0.658469
-0.658467
-0.658479
-0.658494
-0.658527
-0.658549
-0.658583
-0.658599
-0.658617
-0.658621
-0.658633
-0.658643
-0.658661
-0.658681
-0.658708
-0.65874
-0.658772
-0.658803
-0.658829
-0.658856
-0.658882
-0.658908
-0.658938
-0.65896
-0.658986
-0.658992
-0.658981
-0.658913
-0.658766
-0.658459
-0.657877
-0.656803
-0.654859
-0.651448
-0.645512
-0.635572
-0.619285
-0.594359
-0.558262
-0.515279
-0.470141
-0.461739
-0.326329
50.6486
79.7467
77.6648
61.1242
45.6536
31.2254
21.08
13.373
8.42008
4.96702
2.8607
1.46327
0.643326
0.116405
-0.183041
-0.371647
-0.475847
-0.540761
-0.575672
-0.597349
-0.608672
-0.61572
-0.619279
-0.621503
-0.622577
-0.623246
-0.623529
-0.623709
-0.623757
-0.623787
-0.623772
-0.623755
-0.623718
-0.623681
-0.623633
-0.623587
-0.623536
-0.623498
-0.623461
-0.623433
-0.623402
-0.623372
-0.62334
-0.623318
-0.623297
-0.623278
-0.623255
-0.623239
-0.623214
-0.623201
-0.623184
-0.623176
-0.623167
-0.623167
-0.623157
-0.623159
-0.62315
-0.623153
-0.62315
-0.623163
-0.623177
-0.62321
-0.623232
-0.623266
-0.623282
-0.6233
-0.623304
-0.623316
-0.623325
-0.623344
-0.623363
-0.623391
-0.623423
-0.623456
-0.623486
-0.623513
-0.623539
-0.623565
-0.62359
-0.623621
-0.623643
-0.623669
-0.623675
-0.623665
-0.623597
-0.623451
-0.623145
-0.622566
-0.621497
-0.619563
-0.616169
-0.610266
-0.600381
-0.584202
-0.559462
-0.523754
-0.481298
-0.436886
-0.4237
-0.275826
51.4665
78.8769
76.618
60.4225
45.113
30.9136
20.8737
13.2773
8.37455
4.9679
2.88174
1.50209
0.689382
0.168853
-0.128193
-0.314587
-0.418033
-0.482197
-0.516883
-0.538309
-0.549569
-0.556533
-0.560075
-0.562272
-0.563339
-0.564
-0.564282
-0.564458
-0.564506
-0.564535
-0.564519
-0.564503
-0.564465
-0.564428
-0.564379
-0.564334
-0.564283
-0.564246
-0.564208
-0.564181
-0.564149
-0.564119
-0.564086
-0.564065
-0.564042
-0.564024
-0.564
-0.563985
-0.56396
-0.563947
-0.563931
-0.563923
-0.563914
-0.563915
-0.563905
-0.563907
-0.563898
-0.5639
-0.563897
-0.56391
-0.563924
-0.563956
-0.563978
-0.564012
-0.564028
-0.564045
-0.564049
-0.564061
-0.56407
-0.56409
-0.564109
-0.564137
-0.564169
-0.564204
-0.564234
-0.564261
-0.564285
-0.564311
-0.564336
-0.564367
-0.564389
-0.564415
-0.564422
-0.564412
-0.564345
-0.5642
-0.563898
-0.563325
-0.562266
-0.560353
-0.556993
-0.551152
-0.541373
-0.52539
-0.500977
-0.465883
-0.424258
-0.380689
-0.361751
-0.194025
51.4067
77.5244
75.0725
59.3303
44.2725
30.3961
20.5231
13.0869
8.26408
4.92566
2.8721
1.51887
0.718072
0.207116
-0.0858777
-0.26895
-0.371084
-0.434121
-0.468403
-0.489454
-0.500593
-0.507433
-0.51094
-0.513097
-0.514152
-0.5148
-0.515078
-0.515249
-0.515296
-0.515324
-0.515308
-0.515292
-0.515253
-0.515217
-0.515167
-0.515122
-0.515071
-0.515034
-0.514996
-0.514969
-0.514936
-0.514906
-0.514872
-0.514851
-0.514827
-0.51481
-0.514786
-0.514771
-0.514747
-0.514734
-0.514718
-0.514711
-0.514701
-0.514703
-0.514692
-0.514695
-0.514686
-0.514688
-0.514684
-0.514697
-0.514711
-0.514743
-0.514765
-0.514798
-0.514814
-0.514831
-0.514835
-0.514847
-0.514856
-0.514876
-0.514895
-0.514925
-0.514957
-0.514993
-0.515022
-0.515049
-0.515073
-0.515098
-0.515123
-0.515153
-0.515175
-0.515202
-0.51521
-0.5152
-0.515135
-0.514993
-0.514696
-0.514132
-0.513091
-0.511209
-0.507903
-0.50216
-0.492546
-0.476857
-0.452934
-0.418707
-0.378229
-0.335588
-0.309868
-0.115554
50.5179
75.6573
73.0482
57.8501
43.1404
29.6724
20.03
12.7999
8.08774
4.83812
2.83001
1.51143
0.72747
0.229133
-0.0580397
-0.236719
-0.336937
-0.398483
-0.432162
-0.452717
-0.463673
-0.470349
-0.473801
-0.475905
-0.476942
-0.477572
-0.477845
-0.47801
-0.478055
-0.478082
-0.478065
-0.47805
-0.478009
-0.477973
-0.477923
-0.477878
-0.477826
-0.477791
-0.477752
-0.477726
-0.477691
-0.477661
-0.477627
-0.477605
-0.477581
-0.477564
-0.47754
-0.477525
-0.477501
-0.477489
-0.477472
-0.477468
-0.477457
-0.477459
-0.477449
-0.477451
-0.477442
-0.477445
-0.47744
-0.477453
-0.477466
-0.477498
-0.477519
-0.477552
-0.477567
-0.477585
-0.477588
-0.4776
-0.477609
-0.47763
-0.477649
-0.47768
-0.477712
-0.47775
-0.477779
-0.477806
-0.477828
-0.477853
-0.477877
-0.477908
-0.47793
-0.477957
-0.477966
-0.477957
-0.477894
-0.477755
-0.477465
-0.476916
-0.475898
-0.474059
-0.470827
-0.465217
-0.455827
-0.44053
-0.417252
-0.384117
-0.345051
-0.303352
-0.270172
-0.0469379
48.9691
73.2806
70.5732
56
41.7352
28.7549
19.406
12.4253
7.85452
4.71326
2.76358
1.48752
0.725451
0.242684
-0.0368288
-0.210064
-0.307734
-0.367432
-0.400298
-0.42024
-0.430942
-0.437418
-0.440792
-0.442831
-0.443843
-0.444452
-0.444716
-0.444874
-0.444917
-0.444942
-0.444924
-0.444909
-0.444867
-0.444832
-0.444781
-0.444736
-0.444683
-0.444649
-0.44461
-0.444584
-0.444548
-0.444518
-0.444483
-0.444461
-0.444436
-0.444419
-0.444395
-0.444381
-0.444356
-0.444345
-0.444329
-0.444325
-0.444314
-0.444316
-0.444306
-0.444309
-0.444301
-0.444303
-0.444297
-0.444311
-0.444322
-0.444354
-0.444375
-0.444408
-0.444422
-0.44444
-0.444442
-0.444454
-0.444464
-0.444486
-0.444504
-0.444536
-0.444569
-0.444608
-0.444638
-0.444665
-0.444684
-0.444709
-0.444732
-0.444763
-0.444786
-0.444814
-0.444824
-0.444817
-0.444756
-0.444622
-0.444341
-0.443808
-0.44282
-0.441036
-0.437898
-0.432456
-0.423349
-0.40854
-0.386053
-0.354214
-0.316782
-0.276017
-0.235101
0.0154917
46.9007
70.4107
67.6716
53.797
40.0717
27.6531
18.6589
11.9686
7.56911
4.55489
2.67643
1.45051
0.715362
0.251042
-0.0189527
-0.185711
-0.280186
-0.337683
-0.369516
-0.388728
-0.399104
-0.405342
-0.408615
-0.410577
-0.411556
-0.41214
-0.412394
-0.412543
-0.412583
-0.412606
-0.412587
-0.412572
-0.41253
-0.412494
-0.412442
-0.412397
-0.412345
-0.412312
-0.412273
-0.412247
-0.412208
-0.412179
-0.412143
-0.412121
-0.412094
-0.412078
-0.412054
-0.41204
-0.412016
-0.412005
-0.411989
-0.411986
-0.411975
-0.411977
-0.411968
-0.411971
-0.411963
-0.411966
-0.411959
-0.411972
-0.411983
-0.412013
-0.412034
-0.412066
-0.412081
-0.412098
-0.4121
-0.412112
-0.412122
-0.412145
-0.412163
-0.412196
-0.41223
-0.412271
-0.4123
-0.412327
-0.412345
-0.412369
-0.412391
-0.412423
-0.412445
-0.412474
-0.412485
-0.41248
-0.412422
-0.412294
-0.412024
-0.411512
-0.410561
-0.408843
-0.40582
-0.400579
-0.391813
-0.377585
-0.356031
-0.325671
-0.290059
-0.250243
-0.201704
0.0721085
44.4215
67.0708
64.3657
51.2571
38.1624
26.3747
17.794
11.4331
7.23362
4.36431
2.56948
1.40105
0.697751
0.25469
-0.00395228
-0.163221
-0.253845
-0.308798
-0.339371
-0.357739
-0.367714
-0.373677
-0.376824
-0.378697
-0.379637
-0.380191
-0.380433
-0.380572
-0.380608
-0.380628
-0.380608
-0.380593
-0.38055
-0.380514
-0.380462
-0.380416
-0.380364
-0.380332
-0.380293
-0.380267
-0.380227
-0.380198
-0.38016
-0.380138
-0.380111
-0.380095
-0.38007
-0.380057
-0.380033
-0.380023
-0.380006
-0.380005
-0.379993
-0.379996
-0.379987
-0.37999
-0.379983
-0.379986
-0.379978
-0.379991
-0.380001
-0.380031
-0.38005
-0.380082
-0.380096
-0.380113
-0.380115
-0.380127
-0.380137
-0.380161
-0.380179
-0.380213
-0.380248
-0.38029
-0.38032
-0.380347
-0.380363
-0.380387
-0.380408
-0.38044
-0.380462
-0.380492
-0.380505
-0.380502
-0.380448
-0.380326
-0.380069
-0.379582
-0.378673
-0.377033
-0.374144
-0.369139
-0.360769
-0.347212
-0.326727
-0.29801
-0.264382
-0.225578
-0.169954
0.121295
41.6192
63.2909
60.6789
48.3978
36.0205
24.9282
16.817
10.822
6.85005
4.14262
2.44335
1.33949
0.672796
0.253723
0.0082207
-0.142571
-0.228698
-0.280768
-0.309855
-0.327263
-0.336763
-0.342413
-0.34541
-0.347183
-0.348075
-0.348597
-0.348823
-0.34895
-0.348982
-0.349
-0.348978
-0.348963
-0.348919
-0.348883
-0.34883
-0.348785
-0.348732
-0.348701
-0.348661
-0.348635
-0.348594
-0.348565
-0.348526
-0.348504
-0.348475
-0.34846
-0.348435
-0.348423
-0.348399
-0.348389
-0.348372
-0.348372
-0.348359
-0.348363
-0.348354
-0.348358
-0.348351
-0.348355
-0.348346
-0.348358
-0.348367
-0.348396
-0.348415
-0.348446
-0.34846
-0.348477
-0.348478
-0.348491
-0.348501
-0.348525
-0.348544
-0.348579
-0.348615
-0.348659
-0.348689
-0.348715
-0.34873
-0.348753
-0.348774
-0.348805
-0.348828
-0.348859
-0.348873
-0.348872
-0.348822
-0.348709
-0.348467
-0.348008
-0.347148
-0.345597
-0.342861
-0.338125
-0.330206
-0.317405
-0.298116
-0.271188
-0.239688
-0.20203
-0.14034
0.161556
38.5635
59.1054
56.6359
45.2387
33.66
23.3231
15.734
10.1392
6.42077
3.89125
2.29887
1.2663
0.640786
0.248323
0.0176875
-0.123669
-0.204673
-0.253525
-0.280908
-0.297245
-0.306196
-0.311497
-0.31432
-0.31598
-0.316818
-0.317303
-0.317512
-0.317626
-0.317653
-0.317668
-0.317644
-0.317628
-0.317584
-0.317548
-0.317494
-0.317448
-0.317396
-0.317366
-0.317326
-0.317299
-0.317257
-0.317228
-0.317188
-0.317165
-0.317136
-0.317121
-0.317096
-0.317084
-0.31706
-0.317051
-0.317034
-0.317034
-0.317022
-0.317025
-0.317017
-0.317022
-0.317016
-0.317019
-0.317009
-0.317022
-0.317029
-0.317057
-0.317075
-0.317106
-0.317119
-0.317136
-0.317136
-0.317149
-0.31716
-0.317185
-0.317204
-0.31724
-0.317277
-0.317322
-0.317353
-0.317379
-0.317392
-0.317415
-0.317435
-0.317466
-0.31749
-0.317521
-0.317537
-0.317539
-0.317494
-0.317389
-0.317165
-0.316736
-0.315932
-0.31448
-0.311917
-0.30748
-0.300065
-0.2881
-0.270122
-0.245116
-0.21587
-0.179575
-0.113279
0.192
35.3093
54.5516
52.2633
41.8012
31.0961
21.5702
14.5519
9.38916
5.94849
3.61184
2.13702
1.1821
0.602073
0.238712
0.0245906
-0.106411
-0.181696
-0.227007
-0.252478
-0.267635
-0.275966
-0.280882
-0.283507
-0.285043
-0.285819
-0.286263
-0.286452
-0.286553
-0.286574
-0.286585
-0.286559
-0.286543
-0.286499
-0.286462
-0.286407
-0.286362
-0.286309
-0.28628
-0.286239
-0.286213
-0.286169
-0.28614
-0.2861
-0.286076
-0.286046
-0.286031
-0.286006
-0.285995
-0.285971
-0.285962
-0.285945
-0.285945
-0.285933
-0.285937
-0.285929
-0.285935
-0.285929
-0.285933
-0.285923
-0.285934
-0.285941
-0.285967
-0.285985
-0.286014
-0.286028
-0.286045
-0.286044
-0.286057
-0.286068
-0.286095
-0.286113
-0.28615
-0.286188
-0.286235
-0.286266
-0.286291
-0.286304
-0.286326
-0.286345
-0.286376
-0.2864
-0.286433
-0.286451
-0.286456
-0.286416
-0.286321
-0.286115
-0.285721
-0.284978
-0.283635
-0.281263
-0.277156
-0.270294
-0.25924
-0.242673
-0.219707
-0.192832
-0.158194
-0.0891035
0.212235
31.8997
49.6673
47.589
38.1079
28.3448
19.6807
13.2781
8.57678
5.43618
3.3063
1.95891
1.08755
0.557054
0.225137
0.0290769
-0.0906978
-0.159703
-0.201161
-0.224526
-0.238397
-0.246041
-0.250538
-0.252944
-0.254345
-0.255051
-0.255452
-0.255619
-0.255706
-0.255719
-0.255727
-0.255699
-0.255681
-0.255637
-0.2556
-0.255544
-0.255499
-0.255446
-0.255417
-0.255376
-0.255349
-0.255305
-0.255275
-0.255234
-0.25521
-0.255179
-0.255164
-0.25514
-0.255129
-0.255105
-0.255097
-0.255079
-0.25508
-0.255067
-0.255071
-0.255065
-0.255071
-0.255066
-0.25507
-0.255059
-0.25507
-0.255075
-0.255101
-0.255117
-0.255146
-0.255159
-0.255176
-0.255175
-0.255189
-0.2552
-0.255227
-0.255246
-0.255283
-0.255323
-0.255371
-0.255402
-0.255427
-0.255438
-0.25546
-0.255478
-0.25551
-0.255535
-0.255568
-0.255589
-0.255596
-0.255562
-0.255478
-0.255293
-0.254936
-0.25426
-0.253036
-0.25087
-0.247122
-0.240858
-0.230782
-0.215718
-0.194897
-0.170503
-0.13788
-0.068051
0.222263
28.3683
44.4909
42.6421
34.1828
25.4231
17.667
11.9206
7.70737
4.88715
2.97673
1.76579
0.983436
0.506183
0.207878
0.0313122
-0.0764243
-0.138625
-0.175942
-0.197016
-0.209503
-0.216398
-0.220443
-0.222608
-0.223864
-0.224494
-0.224849
-0.224991
-0.225063
-0.225068
-0.225072
-0.225041
-0.225023
-0.224978
-0.22494
-0.224884
-0.224839
-0.224786
-0.224757
-0.224716
-0.224689
-0.224644
-0.224614
-0.224572
-0.224547
-0.224516
-0.224501
-0.224477
-0.224466
-0.224442
-0.224434
-0.224416
-0.224417
-0.224405
-0.224409
-0.224403
-0.224411
-0.224406
-0.224411
-0.224399
-0.224409
-0.224413
-0.224437
-0.224452
-0.224481
-0.224494
-0.22451
-0.224509
-0.224523
-0.224535
-0.224562
-0.224581
-0.22462
-0.22466
-0.22471
-0.22474
-0.224766
-0.224775
-0.224796
-0.224815
-0.224847
-0.224872
-0.224907
-0.224929
-0.22494
-0.224913
-0.22484
-0.224676
-0.22436
-0.223756
-0.222659
-0.220716
-0.217351
-0.211727
-0.202692
-0.189212
-0.17063
-0.148821
-0.118622
-0.0502399
0.222415
24.7417
39.0598
37.4526
30.0509
22.349
15.542
10.4878
6.78667
4.30497
2.62542
1.55905
0.870635
0.449977
0.187258
0.0314885
-0.0634669
-0.118385
-0.151293
-0.16991
-0.180921
-0.187009
-0.190572
-0.192478
-0.193578
-0.194127
-0.194431
-0.194548
-0.194603
-0.194601
-0.194599
-0.194567
-0.194547
-0.194502
-0.194463
-0.194405
-0.194361
-0.194308
-0.194279
-0.194237
-0.19421
-0.194164
-0.194135
-0.194092
-0.194066
-0.194034
-0.19402
-0.193996
-0.193985
-0.193962
-0.193954
-0.193935
-0.193937
-0.193924
-0.193929
-0.193923
-0.193932
-0.193928
-0.193933
-0.19392
-0.19393
-0.193933
-0.193955
-0.19397
-0.193998
-0.19401
-0.194027
-0.194026
-0.19404
-0.194052
-0.19408
-0.194099
-0.194138
-0.194179
-0.19423
-0.194261
-0.194286
-0.194295
-0.194315
-0.194334
-0.194365
-0.194391
-0.194428
-0.194452
-0.194467
-0.194446
-0.194386
-0.194246
-0.193972
-0.193444
-0.192483
-0.190776
-0.187819
-0.182872
-0.174933
-0.163109
-0.146847
-0.127722
-0.100383
-0.0356587
0.213295
21.0412
33.4109
32.0517
25.738
19.1411
13.3193
8.98884
5.82077
3.6935
2.25488
1.34023
0.750111
0.389015
0.163639
0.0298235
-0.051686
-0.0988935
-0.127155
-0.143162
-0.152616
-0.157846
-0.160899
-0.162528
-0.163464
-0.163926
-0.164178
-0.164268
-0.164306
-0.164294
-0.164288
-0.164253
-0.164231
-0.164185
-0.164146
-0.164088
-0.164043
-0.16399
-0.163961
-0.163919
-0.163891
-0.163845
-0.163815
-0.163772
-0.163746
-0.163713
-0.163698
-0.163675
-0.163664
-0.163641
-0.163633
-0.163615
-0.163616
-0.163604
-0.163608
-0.163604
-0.163613
-0.16361
-0.163615
-0.163602
-0.163611
-0.163612
-0.163634
-0.163647
-0.163675
-0.163687
-0.163703
-0.163702
-0.163716
-0.163729
-0.163758
-0.163777
-0.163817
-0.163858
-0.16391
-0.163941
-0.163966
-0.163974
-0.163994
-0.164012
-0.164044
-0.164071
-0.164109
-0.164135
-0.164154
-0.16414
-0.164093
-0.163978
-0.163749
-0.163302
-0.162484
-0.161026
-0.158496
-0.154259
-0.147464
-0.137361
-0.123489
-0.107141
-0.0831002
-0.024168
0.195735
17.2838
27.58
26.4708
21.2708
15.8189
11.013
7.43308
4.81607
3.05681
1.86777
1.11096
0.622909
0.323931
0.13742
0.0265583
-0.0409274
-0.0800538
-0.103459
-0.116726
-0.12455
-0.128876
-0.131396
-0.132733
-0.133498
-0.133868
-0.134065
-0.134126
-0.134147
-0.134125
-0.134113
-0.134076
-0.134053
-0.134006
-0.133966
-0.133907
-0.133862
-0.133809
-0.13378
-0.133737
-0.133709
-0.133663
-0.133633
-0.133589
-0.133563
-0.133529
-0.133514
-0.133491
-0.13348
-0.133457
-0.13345
-0.133431
-0.133433
-0.133421
-0.133425
-0.133422
-0.133432
-0.133428
-0.133433
-0.133421
-0.133428
-0.133429
-0.133449
-0.133462
-0.133489
-0.133501
-0.133517
-0.133516
-0.13353
-0.133544
-0.133572
-0.133593
-0.133633
-0.133675
-0.133727
-0.133758
-0.133782
-0.13379
-0.133809
-0.133828
-0.13386
-0.133888
-0.133927
-0.133956
-0.133978
-0.133971
-0.133938
-0.133849
-0.133668
-0.133304
-0.132636
-0.131437
-0.129352
-0.125855
-0.120245
-0.111915
-0.100495
-0.0870066
-0.0666855
-0.0155103
0.170751
13.4835
21.6018
20.7422
16.6765
12.4023
8.63773
5.83034
3.77925
2.39921
1.46691
0.873009
0.490144
0.255406
0.109028
0.0219545
-0.0310235
-0.0617591
-0.0801327
-0.09055
-0.0966831
-0.100068
-0.102033
-0.103066
-0.103653
-0.103928
-0.104069
-0.104099
-0.104102
-0.104071
-0.104053
-0.104013
-0.103988
-0.10394
-0.1039
-0.103839
-0.103795
-0.103742
-0.103711
-0.103668
-0.10364
-0.103594
-0.103564
-0.10352
-0.103493
-0.103459
-0.103444
-0.10342
-0.10341
-0.103387
-0.10338
-0.103361
-0.103362
-0.103351
-0.103356
-0.103353
-0.103363
-0.10336
-0.103365
-0.103353
-0.103359
-0.103359
-0.103378
-0.10339
-0.103416
-0.103429
-0.103445
-0.103443
-0.103458
-0.103472
-0.103501
-0.103521
-0.103562
-0.103604
-0.103657
-0.103688
-0.103712
-0.103718
-0.103738
-0.103757
-0.10379
-0.103818
-0.103858
-0.10389
-0.103916
-0.103917
-0.103898
-0.103836
-0.103703
-0.103427
-0.102912
-0.101982
-0.100357
-0.097623
-0.0932336
-0.0867189
-0.0777998
-0.0672452
-0.0510224
-0.00932252
0.139505
9.65197
15.5101
14.8983
11.9829
8.91168
6.20838
4.19073
2.71722
1.72516
1.05522
0.628201
0.35299
0.184162
0.07892
0.0162909
-0.0217963
-0.043896
-0.0570989
-0.0645789
-0.0689733
-0.0713872
-0.0727813
-0.0735001
-0.0739034
-0.0740803
-0.0741629
-0.0741624
-0.0741476
-0.0741062
-0.0740817
-0.0740393
-0.0740115
-0.0739632
-0.0739216
-0.0738601
-0.0738161
-0.073763
-0.0737314
-0.0736881
-0.0736598
-0.0736135
-0.073583
-0.0735392
-0.0735118
-0.0734773
-0.0734618
-0.0734388
-0.0734286
-0.0734057
-0.073399
-0.0733806
-0.0733814
-0.07337
-0.0733753
-0.0733723
-0.0733834
-0.0733805
-0.0733856
-0.0733729
-0.0733784
-0.0733772
-0.0733953
-0.073407
-0.0734328
-0.0734451
-0.0734609
-0.0734594
-0.0734744
-0.0734887
-0.073518
-0.073539
-0.0735795
-0.0736221
-0.0736757
-0.0737065
-0.0737296
-0.0737357
-0.0737551
-0.0737742
-0.0738075
-0.073837
-0.0738782
-0.0739126
-0.0739431
-0.0739514
-0.0739478
-0.0739131
-0.0738303
-0.0736435
-0.0732873
-0.0726324
-0.0714797
-0.0695264
-0.066384
-0.0617194
-0.0553397
-0.0477785
-0.0359712
-0.00515205
0.103276
5.79925
9.3379
8.97186
7.21812
5.36802
3.7402
2.5246
1.63704
1.03926
0.635728
0.37845
0.212669
0.110952
0.0475704
0.0098605
-0.0130585
-0.0263453
-0.0342765
-0.0387559
-0.0413768
-0.0427973
-0.0436087
-0.0440065
-0.0442226
-0.0442989
-0.0443228
-0.0442907
-0.0442577
-0.0442059
-0.0441748
-0.0441296
-0.0440992
-0.0440498
-0.0440075
-0.0439451
-0.0439013
-0.0438478
-0.0438152
-0.0437715
-0.0437431
-0.0436968
-0.0436662
-0.0436222
-0.0435947
-0.0435597
-0.0435439
-0.043521
-0.0435111
-0.0434884
-0.0434819
-0.043464
-0.0434644
-0.0434533
-0.0434587
-0.043456
-0.0434674
-0.0434646
-0.0434695
-0.0434568
-0.0434614
-0.0434595
-0.0434766
-0.043488
-0.0435135
-0.0435256
-0.0435413
-0.0435399
-0.0435551
-0.0435698
-0.0435994
-0.0436207
-0.0436614
-0.0437041
-0.0437578
-0.0437882
-0.0438108
-0.0438166
-0.043836
-0.0438555
-0.0438892
-0.0439197
-0.0439623
-0.0439993
-0.044034
-0.0440503
-0.0440619
-0.0440555
-0.0440235
-0.0439279
-0.0437329
-0.0433584
-0.0426859
-0.0415272
-0.0396512
-0.036861
-0.0330483
-0.0285248
-0.0213721
-0.00247463
0.063427
1.93423
3.11772
2.99588
2.4105
1.79239
1.24863
0.8425
0.545933
0.346212
0.211527
0.125711
0.0704334
0.0365541
0.0154704
0.00296618
-0.00461682
-0.00898339
-0.0115818
-0.0130223
-0.0138484
-0.0142623
-0.0144837
-0.0145562
-0.014583
-0.0145574
-0.014522
-0.0144582
-0.0144069
-0.0143447
-0.0143067
-0.0142586
-0.0142255
-0.0141747
-0.0141317
-0.0140686
-0.0140248
-0.013971
-0.0139372
-0.0138932
-0.0138645
-0.0138183
-0.0137876
-0.0137437
-0.013716
-0.0136805
-0.0136646
-0.0136419
-0.0136322
-0.0136097
-0.0136035
-0.013586
-0.0135862
-0.0135753
-0.0135808
-0.0135782
-0.0135898
-0.0135869
-0.0135915
-0.013579
-0.0135827
-0.0135801
-0.0135965
-0.0136077
-0.0136328
-0.0136449
-0.0136605
-0.0136592
-0.0136745
-0.0136897
-0.0137195
-0.0137411
-0.0137818
-0.0138244
-0.013878
-0.0139081
-0.0139302
-0.0139357
-0.0139551
-0.013975
-0.0140093
-0.0140409
-0.0140848
-0.0141244
-0.0141635
-0.0141879
-0.014215
-0.0142371
-0.0142566
-0.014253
-0.014221
-0.0141299
-0.0139427
-0.0135867
-0.0129888
-0.0120874
-0.0108586
-0.00939998
-0.00705034
-0.000713881
0.0213831
-1.93482
-3.11842
-2.99663
-2.41141
-1.79392
-1.25075
-0.84495
-0.548836
-0.34923
-0.214248
-0.128025
-0.0724413
-0.0382405
-0.01688
-0.00408294
0.00372619
0.00831557
0.0110704
0.0126817
0.0136575
0.0142548
0.0146259
0.0148801
0.0150432
0.0151711
0.0152657
0.0153612
0.0154307
0.0155032
0.0155482
0.0155993
0.0156353
0.0156876
0.0157313
0.0157951
0.015839
0.0158932
0.0159282
0.0159725
0.0160015
0.0160476
0.0160783
0.0161221
0.0161499
0.0161857
0.0162017
0.0162244
0.0162336
0.0162559
0.0162619
0.0162788
0.0162789
0.0162896
0.016284
0.0162866
0.0162751
0.0162782
0.016274
0.0162864
0.0162835
0.0162866
0.0162707
0.0162596
0.0162349
0.0162228
0.0162072
0.0162084
0.0161928
0.0161773
0.0161474
0.0161256
0.0160848
0.0160425
0.0159891
0.0159597
0.015938
0.0159327
0.0159131
0.0158927
0.0158579
0.0158251
0.0157798
0.0157376
0.0156942
0.0156615
0.0156189
0.015568
0.0154969
0.0154081
0.0152766
0.0150833
0.0147836
0.0143343
0.0136501
0.0126577
0.0112973
0.00968189
0.00717832
0.000738206
-0.0213962
-5.79982
-9.33859
-8.9726
-7.21904
-5.36957
-3.74234
-2.52707
-1.63996
-1.04228
-0.638449
-0.380763
-0.214674
-0.112636
-0.0489776
-0.0109757
0.0121691
0.0256784
0.033766
0.0384164
0.0411871
0.0427911
0.0437525
0.0443315
0.0446838
0.0449133
0.0450667
0.0451936
0.0452811
0.0453637
0.0454157
0.04547
0.0455091
0.0455629
0.0456073
0.0456718
0.0457159
0.0457704
0.0458066
0.0458513
0.0458806
0.0459265
0.0459572
0.0460009
0.0460287
0.0460647
0.0460809
0.0461034
0.0461123
0.0461342
0.0461399
0.0461561
0.0461564
0.046167
0.0461614
0.0461642
0.046153
0.0461564
0.0461527
0.0461649
0.0461627
0.0461661
0.0461507
0.0461396
0.0461151
0.0461031
0.0460876
0.0460884
0.0460728
0.0460569
0.0460269
0.0460049
0.0459642
0.0459223
0.0458694
0.0458406
0.0458194
0.0458141
0.0457943
0.0457734
0.045738
0.045704
0.0456574
0.0456126
0.0455648
0.0455238
0.0454657
0.0453861
0.0452636
0.0450828
0.0447884
0.0443118
0.0435271
0.042275
0.0403126
0.0374312
0.0334872
0.0288073
0.0215012
0.00250025
-0.0634393
-9.65252
-15.5107
-14.899
-11.9839
-8.91327
-6.21056
-4.19323
-2.72015
-1.72819
-1.05794
-0.630512
-0.354991
-0.18584
-0.0803225
-0.017403
0.0209094
0.0432311
0.0565902
0.0642416
0.068786
0.0713837
0.0729281
0.0738275
0.0743664
0.0746961
0.0749073
0.0750649
0.0751701
0.0752625
0.0753216
0.0753791
0.0754213
0.0754769
0.0755219
0.0755869
0.0756314
0.0756862
0.0757237
0.0757688
0.0757985
0.0758442
0.0758749
0.0759182
0.075946
0.0759822
0.0759983
0.0760207
0.0760292
0.0760507
0.0760561
0.0760715
0.0760721
0.0760825
0.0760771
0.0760802
0.0760694
0.0760732
0.0760702
0.0760823
0.0760807
0.0760842
0.0760692
0.0760579
0.0760337
0.0760216
0.0760061
0.0760066
0.0759908
0.0759747
0.0759447
0.0759225
0.075882
0.0758407
0.0757885
0.0757604
0.0757397
0.0757342
0.0757142
0.0756926
0.0756567
0.0756214
0.0755735
0.0755261
0.075474
0.0754246
0.0753512
0.0752432
0.0750698
0.0747981
0.0743427
0.0735859
0.0723213
0.0702747
0.0670456
0.0622896
0.0557788
0.048062
0.0361024
0.00518026
-0.103287
-13.484
-21.6024
-20.7429
-16.6775
-12.4039
-8.63997
-5.83289
-3.78221
-2.40225
-1.46963
-0.875316
-0.492137
-0.257076
-0.110424
-0.0230618
0.0301403
0.0610969
0.0796267
0.0902161
0.0964992
0.100069
0.102184
0.103397
0.104118
0.104546
0.104814
0.105001
0.105123
0.105225
0.105291
0.105352
0.105398
0.105455
0.105501
0.105566
0.105611
0.105666
0.105705
0.10575
0.10578
0.105826
0.105857
0.1059
0.105927
0.105963
0.10598
0.106002
0.10601
0.106031
0.106036
0.106051
0.106051
0.106062
0.106056
0.10606
0.10605
0.106054
0.106052
0.106064
0.106063
0.106066
0.106051
0.10604
0.106016
0.106004
0.105988
0.105988
0.105972
0.105956
0.105926
0.105904
0.105864
0.105823
0.105772
0.105744
0.105724
0.105718
0.105698
0.105676
0.105639
0.105603
0.105554
0.105504
0.105447
0.10539
0.105301
0.105165
0.104942
0.104581
0.103967
0.102936
0.1012
0.0983719
0.0938953
0.0872889
0.0782391
0.0675304
0.0511567
0.00935454
-0.139514
-17.2842
-27.5806
-26.4715
-21.2718
-15.8206
-11.0153
-7.43569
-4.81907
-3.05986
-1.8705
-1.11327
-0.624894
-0.32559
-0.138806
-0.0276593
0.0400489
0.0793951
0.102956
0.116397
0.12437
0.128882
0.131553
0.133068
0.133967
0.134489
0.134811
0.135027
0.135166
0.135277
0.13535
0.135414
0.135463
0.135522
0.135568
0.135634
0.13568
0.135735
0.135775
0.135821
0.135852
0.135897
0.135927
0.13597
0.135997
0.136033
0.136049
0.136071
0.136079
0.1361
0.136104
0.136118
0.136119
0.136129
0.136124
0.136128
0.136119
0.136124
0.136123
0.136134
0.136134
0.136137
0.136122
0.136111
0.136087
0.136075
0.136059
0.136059
0.136043
0.136026
0.135996
0.135974
0.135934
0.135894
0.135844
0.135817
0.135797
0.135791
0.135771
0.135748
0.135711
0.135673
0.135623
0.13557
0.13551
0.135444
0.13534
0.135177
0.134906
0.134458
0.13369
0.132391
0.130195
0.126605
0.120907
0.112484
0.100934
0.0872938
0.0668238
0.0155473
-0.170756
-21.0415
-33.4114
-32.0524
-25.739
-19.1429
-13.3217
-8.99153
-5.82381
-3.69655
-2.2576
-1.34253
-0.752085
-0.390661
-0.165014
-0.0309167
0.0508134
0.098239
0.126656
0.142838
0.152442
0.157857
0.161062
0.162868
0.163938
0.16455
0.164925
0.165168
0.165323
0.165442
0.165522
0.165589
0.165641
0.165702
0.165749
0.165815
0.165862
0.165917
0.165958
0.166005
0.166036
0.166081
0.166112
0.166154
0.166181
0.166217
0.166233
0.166254
0.166262
0.166281
0.166286
0.166299
0.1663
0.16631
0.166305
0.16631
0.166302
0.166307
0.166307
0.166318
0.166318
0.166321
0.166307
0.166295
0.166271
0.166259
0.166243
0.166242
0.166226
0.166209
0.166179
0.166157
0.166118
0.166079
0.16603
0.166004
0.165984
0.165978
0.165957
0.165933
0.165896
0.165857
0.165805
0.16575
0.165686
0.165612
0.165494
0.165305
0.164986
0.164454
0.163538
0.16198
0.15934
0.15501
0.148126
0.13793
0.12393
0.10743
0.0832435
0.024211
-0.195737
-24.742
-39.0602
-37.4533
-30.052
-22.3509
-15.5445
-10.4906
-6.78976
-4.30804
-2.62814
-1.56134
-0.872597
-0.451608
-0.188619
-0.0325723
0.0626011
0.117735
0.150799
0.169591
0.180753
0.187027
0.190743
0.192823
0.194056
0.194755
0.19518
0.195448
0.195619
0.195746
0.195831
0.195902
0.195957
0.196019
0.196068
0.196134
0.196181
0.196237
0.196279
0.196326
0.196358
0.196403
0.196433
0.196474
0.196502
0.196537
0.196552
0.196574
0.196581
0.1966
0.196604
0.196616
0.196617
0.196627
0.196623
0.196628
0.196621
0.196628
0.196628
0.19664
0.19664
0.196643
0.196628
0.196616
0.196592
0.196579
0.196564
0.196562
0.196545
0.196529
0.196499
0.196477
0.196439
0.1964
0.196353
0.196328
0.196309
0.196301
0.19628
0.196256
0.196218
0.196177
0.196124
0.196068
0.195999
0.195917
0.195786
0.195572
0.195208
0.194596
0.193537
0.191731
0.188664
0.183624
0.175595
0.163679
0.147288
0.128015
0.100531
0.0357086
-0.213292
-28.3685
-44.4912
-42.6427
-34.184
-25.4251
-17.6696
-11.9235
-7.71052
-4.89024
-2.97945
-1.76807
-0.985384
-0.507797
-0.209224
-0.0323853
0.0755662
0.13798
0.175453
0.196704
0.209342
0.216423
0.220622
0.22296
0.224348
0.225126
0.225599
0.22589
0.226076
0.22621
0.226301
0.226375
0.226433
0.226497
0.226546
0.226612
0.226661
0.226717
0.22676
0.226807
0.22684
0.226885
0.226915
0.226956
0.226982
0.227017
0.227032
0.227054
0.22706
0.227079
0.227082
0.227094
0.227094
0.227104
0.227101
0.227107
0.227101
0.227108
0.22711
0.227121
0.227122
0.227124
0.227109
0.227096
0.227073
0.22706
0.227044
0.227042
0.227025
0.227009
0.22698
0.226957
0.226919
0.226882
0.226836
0.226812
0.226793
0.226785
0.226763
0.226738
0.2267
0.226658
0.226604
0.226545
0.226473
0.226383
0.226239
0.226001
0.225595
0.224907
0.223713
0.221671
0.218198
0.212481
0.203355
0.189781
0.171071
0.149116
0.118777
0.0502977
-0.222407
-31.8999
-49.6676
-47.5897
-38.1092
-28.3468
-19.6834
-13.2811
-8.57998
-5.43929
-3.30904
-1.96119
-1.08948
-0.55865
-0.226466
-0.0301381
0.0898482
0.159064
0.200678
0.224221
0.238244
0.246074
0.250725
0.253302
0.254835
0.255687
0.256205
0.256517
0.256716
0.256856
0.256953
0.25703
0.257091
0.257157
0.257207
0.257273
0.257323
0.257379
0.257423
0.257471
0.257504
0.257549
0.257579
0.257619
0.257645
0.257679
0.257694
0.257715
0.257722
0.257739
0.257743
0.257753
0.257754
0.257763
0.257761
0.257767
0.257763
0.257771
0.257774
0.257785
0.257786
0.257787
0.257773
0.257759
0.257736
0.257723
0.257707
0.257703
0.257687
0.25767
0.257642
0.25762
0.257582
0.257546
0.257502
0.257478
0.257459
0.257451
0.257428
0.257403
0.257364
0.257321
0.257266
0.257205
0.257129
0.257033
0.256876
0.256616
0.256169
0.255409
0.254089
0.251826
0.24797
0.241612
0.231446
0.216286
0.195339
0.170802
0.138043
0.0681172
-0.22225
-35.3094
-54.5518
-52.264
-41.8025
-31.0982
-21.573
-14.555
-9.39243
-5.95161
-3.61458
-2.13929
-1.18401
-0.603651
-0.240024
-0.0256389
0.10557
0.181063
0.226529
0.25218
0.267489
0.276006
0.281077
0.283872
0.285539
0.286459
0.287018
0.28735
0.287562
0.287707
0.287809
0.287889
0.287952
0.288019
0.288072
0.288137
0.288188
0.288244
0.288289
0.288337
0.288372
0.288416
0.288446
0.288485
0.288511
0.288544
0.288559
0.28858
0.288586
0.288602
0.288606
0.288615
0.288616
0.288625
0.288624
0.28863
0.288628
0.288637
0.288641
0.288652
0.288653
0.288654
0.288639
0.288625
0.288602
0.288588
0.288573
0.288568
0.288551
0.288535
0.288507
0.288485
0.288449
0.288413
0.28837
0.288347
0.288329
0.288319
0.288296
0.28827
0.288231
0.288187
0.288131
0.288068
0.28799
0.287886
0.287718
0.287436
0.286953
0.286127
0.284688
0.282219
0.278006
0.27105
0.259903
0.24324
0.220149
0.193135
0.158363
0.0891785
-0.212216
-38.5634
-59.1055
-56.6365
-45.2401
-33.6623
-23.3261
-15.7373
-10.1425
-6.42392
-3.89398
-2.30114
-1.2682
-0.642344
-0.249615
-0.0187221
0.122838
0.204045
0.253053
0.280617
0.297107
0.306244
0.311701
0.314692
0.316482
0.317463
0.318061
0.318409
0.318632
0.318783
0.318889
0.318971
0.319037
0.319105
0.319159
0.319224
0.319276
0.319333
0.319378