/*--------------------------------*- C++ -*----------------------------------*\
| =========                 |                                                 |
| \\      /  F ield         | OpenFOAM: The Open Source CFD Toolbox           |
|  \\    /   O peration     | Version:  v1906                                 |
|   \\  /    A nd           | Web:      www.OpenFOAM.com                      |
|    \\/     M anipulation  |                                                 |
\*---------------------------------------------------------------------------*/
FoamFile
{
    version     2.0;
    format      ascii;
    class       volScalarField;
    location    "1";
    object      pB;
}
// * * * * * * * * * * * * * * * * * * * * * * * * * * * * * * * * * * * * * //

dimensions      [1 1 -3 0 0 -1 0];


internalField   nonuniform List<scalar> 
4000
(
38.5239
89.3311
116.607
127.129
126.852
119.361
107.997
94.9248
81.6359
68.9909
57.4706
47.2846
38.4813
31.0079
24.7569
19.593
15.3732
11.9578
9.2172
7.0353
5.31069
3.95651
2.89974
2.07973
1.44678
0.960651
0.58896
0.305951
0.0913607
-0.0708316
-0.192973
-0.284687
-0.353359
-0.404653
-0.442846
-0.471269
-0.492329
-0.507935
-0.519454
-0.527945
-0.534166
-0.538736
-0.542028
-0.544434
-0.546138
-0.547356
-0.548195
-0.54878
-0.549153
-0.549411
-0.549548
-0.549649
-0.54969
-0.549727
-0.549737
-0.549754
-0.549746
-0.549751
-0.549729
-0.549722
-0.549692
-0.549674
-0.54963
-0.549588
-0.549508
-0.54942
-0.549282
-0.549123
-0.548911
-0.548669
-0.54836
-0.548004
-0.54755
-0.547002
-0.546287
-0.545383
-0.544173
-0.54259
-0.540453
-0.537606
-0.533767
-0.528631
-0.52176
-0.512645
-0.500614
-0.484919
-0.464638
-0.438829
-0.406531
-0.367064
-0.320315
-0.267479
-0.212057
-0.16147
-0.129019
-0.134637
-0.200162
-0.329791
-0.460794
-0.408249
41.8493
89.5871
115.727
126.025
125.743
118.375
107.154
94.2237
81.0602
68.5238
57.0954
46.9869
38.248
30.8278
24.6201
19.4913
15.2995
11.9064
9.1834
7.01521
5.30125
3.95526
2.90477
2.08954
1.4602
0.976803
0.607163
0.325683
0.112237
-0.0491024
-0.170612
-0.261855
-0.330177
-0.381213
-0.419214
-0.447497
-0.468452
-0.483981
-0.495444
-0.503893
-0.510083
-0.514632
-0.517909
-0.520304
-0.522
-0.523212
-0.524046
-0.524629
-0.524998
-0.525254
-0.52539
-0.525489
-0.525528
-0.525563
-0.52557
-0.525587
-0.525577
-0.525583
-0.52556
-0.525555
-0.525525
-0.525509
-0.525465
-0.525424
-0.525344
-0.525256
-0.525119
-0.524962
-0.52475
-0.52451
-0.5242
-0.523845
-0.52339
-0.522843
-0.522129
-0.521228
-0.520023
-0.518448
-0.516324
-0.513493
-0.509676
-0.50457
-0.497738
-0.488675
-0.476716
-0.461117
-0.440967
-0.415337
-0.383282
-0.344143
-0.297831
-0.245557
-0.190805
-0.140856
-0.10853
-0.112446
-0.171744
-0.286376
-0.394626
-0.342616
44.296
89.743
114.451
124.346
124
116.773
105.752
93.034
80.0675
67.7075
56.4326
46.4556
37.8279
30.5006
24.3696
19.3033
15.1622
11.8096
9.11876
6.97592
5.28177
3.95116
2.91253
2.10641
1.48402
1.00589
0.640243
0.361767
0.150579
-0.00906731
-0.129313
-0.21961
-0.287228
-0.337741
-0.375353
-0.403347
-0.424089
-0.43946
-0.450808
-0.459172
-0.465298
-0.469802
-0.473047
-0.475418
-0.477097
-0.478297
-0.479121
-0.479697
-0.48006
-0.480313
-0.480445
-0.48054
-0.480576
-0.480607
-0.480611
-0.480625
-0.480613
-0.480619
-0.480597
-0.480593
-0.480565
-0.48055
-0.480507
-0.480467
-0.480388
-0.480301
-0.480166
-0.48001
-0.479799
-0.479561
-0.479252
-0.478898
-0.478444
-0.477898
-0.477188
-0.476293
-0.475099
-0.47354
-0.47144
-0.468642
-0.464869
-0.459821
-0.453065
-0.444104
-0.43228
-0.416863
-0.396955
-0.371646
-0.340015
-0.30143
-0.255826
-0.204417
-0.150615
-0.101411
-0.0688144
-0.0694472
-0.118835
-0.211861
-0.291703
-0.239871
45.1358
89.2941
112.572
121.932
121.482
114.426
103.672
91.2485
78.5636
66.4598
55.4105
45.6286
37.1668
29.9786
23.9628
18.991
14.9264
11.6354
8.99353
6.88939
5.22559
3.91861
2.89827
2.10621
1.49458
1.02465
0.665218
0.391436
0.183781
0.0267905
-0.0914686
-0.180279
-0.246787
-0.296473
-0.33347
-0.361008
-0.381413
-0.396534
-0.407697
-0.415927
-0.421953
-0.426385
-0.429579
-0.431911
-0.433564
-0.434743
-0.435552
-0.436117
-0.436471
-0.436717
-0.436844
-0.436933
-0.436964
-0.436991
-0.436989
-0.437
-0.436985
-0.436991
-0.43697
-0.436966
-0.436941
-0.436927
-0.436886
-0.436849
-0.436771
-0.436685
-0.436552
-0.436399
-0.43619
-0.435955
-0.435647
-0.435295
-0.434843
-0.4343
-0.433596
-0.432711
-0.431535
-0.430002
-0.427939
-0.425191
-0.421486
-0.416529
-0.409891
-0.401088
-0.389474
-0.374333
-0.354792
-0.329966
-0.298967
-0.261193
-0.216605
-0.1664
-0.113856
-0.0655137
-0.0322296
-0.0279824
-0.0639165
-0.129559
-0.176123
-0.119935
44.5467
87.9763
110.007
118.783
118.213
111.357
100.932
88.8788
76.5554
64.7844
54.0305
44.5052
36.2624
29.2584
23.3956
18.5494
14.5869
11.378
8.8017
6.74942
5.12633
3.85112
2.85541
2.08233
1.48524
1.0264
0.675396
0.407989
0.20514
0.0517645
-0.0637851
-0.150566
-0.215558
-0.264116
-0.300272
-0.327185
-0.34713
-0.361908
-0.372819
-0.380864
-0.386754
-0.391087
-0.39421
-0.396489
-0.398104
-0.399255
-0.400044
-0.400594
-0.400937
-0.401172
-0.401292
-0.401374
-0.401399
-0.401419
-0.401412
-0.401418
-0.4014
-0.401405
-0.401385
-0.401382
-0.401359
-0.401348
-0.401309
-0.401274
-0.401198
-0.401114
-0.400983
-0.400834
-0.400628
-0.400395
-0.400091
-0.39974
-0.399292
-0.398754
-0.398059
-0.397188
-0.396036
-0.394538
-0.392526
-0.389846
-0.386233
-0.381397
-0.37492
-0.36633
-0.354997
-0.340227
-0.321177
-0.296991
-0.266821
-0.2301
-0.186813
-0.138116
-0.0870929
-0.0396944
-0.00535419
0.00499936
-0.0150941
-0.0501798
-0.0610187
0.00202079
42.9645
85.7335
106.713
114.911
114.227
107.6
97.5605
85.9492
74.0626
62.6972
52.3056
43.0963
35.1239
28.3479
22.6747
17.9843
14.1487
11.0419
8.54726
6.55966
4.98745
3.75198
2.78711
2.03783
1.45902
1.01412
0.673728
0.414358
0.217572
0.0687638
-0.0433594
-0.127574
-0.190647
-0.237774
-0.272867
-0.298988
-0.318348
-0.332692
-0.343283
-0.351094
-0.356811
-0.361017
-0.36405
-0.366262
-0.367829
-0.368944
-0.369707
-0.370237
-0.370566
-0.370789
-0.3709
-0.370973
-0.370991
-0.371004
-0.37099
-0.370991
-0.370969
-0.370972
-0.370952
-0.370951
-0.37093
-0.370922
-0.370885
-0.370852
-0.370779
-0.370697
-0.37057
-0.370424
-0.370222
-0.369993
-0.369692
-0.369345
-0.368902
-0.36837
-0.367687
-0.366835
-0.365714
-0.36426
-0.362312
-0.359718
-0.356219
-0.351535
-0.34526
-0.336936
-0.325956
-0.311649
-0.293208
-0.269813
-0.240661
-0.205222
-0.163499
-0.116584
-0.0673159
-0.0209423
0.0147015
0.031923
0.0288759
0.0254251
0.0507176
0.119539
40.7442
82.6176
102.678
110.333
109.555
103.191
93.5904
82.4867
71.1075
60.2166
50.2511
41.4145
33.7619
27.2558
21.8074
17.3021
13.6171
10.632
8.23452
6.32405
4.81258
3.62461
2.69663
1.97586
1.41895
0.990805
0.663167
0.413466
0.223981
0.0806763
-0.0273149
-0.108433
-0.16919
-0.21459
-0.248397
-0.273563
-0.292215
-0.306035
-0.316239
-0.323766
-0.329274
-0.333328
-0.336251
-0.338381
-0.339889
-0.340962
-0.341693
-0.3422
-0.342511
-0.34272
-0.34282
-0.342883
-0.342892
-0.342897
-0.342875
-0.342871
-0.342844
-0.342845
-0.342825
-0.342825
-0.342808
-0.342801
-0.342767
-0.342738
-0.342667
-0.342589
-0.342465
-0.342324
-0.342126
-0.341902
-0.341605
-0.341262
-0.340825
-0.340302
-0.339634
-0.338806
-0.337722
-0.336321
-0.334448
-0.331957
-0.328595
-0.324094
-0.31806
-0.310055
-0.299495
-0.285742
-0.268023
-0.245564
-0.217608
-0.183665
-0.143748
-0.0988689
-0.0515741
-0.00633685
0.0306874
0.0550332
0.0691662
0.0967006
0.156559
0.227732
38.1328
78.7274
97.9221
105.073
104.232
98.1646
89.0538
78.519
67.7132
57.3617
47.8826
39.4726
32.1867
25.9906
20.8006
16.5083
12.9969
10.1519
7.86664
6.04525
4.60398
3.47097
2.58574
1.89803
1.36655
0.957878
0.645076
0.406634
0.22566
0.0887735
-0.014396
-0.0919
-0.149952
-0.193335
-0.225641
-0.249688
-0.267514
-0.28072
-0.290472
-0.297667
-0.302931
-0.306805
-0.3096
-0.311634
-0.313074
-0.314096
-0.31479
-0.31527
-0.31556
-0.315753
-0.315841
-0.315892
-0.315891
-0.315888
-0.315858
-0.315847
-0.315816
-0.315813
-0.315794
-0.315795
-0.31578
-0.315776
-0.315745
-0.315718
-0.315651
-0.315576
-0.315457
-0.315321
-0.315129
-0.314909
-0.314618
-0.31428
-0.313851
-0.313339
-0.312689
-0.311889
-0.310848
-0.309509
-0.307724
-0.305351
-0.302149
-0.297859
-0.292104
-0.284469
-0.274396
-0.26128
-0.244394
-0.223007
-0.196417
-0.164169
-0.126284
-0.0836761
-0.0385712
0.00536831
0.0436596
0.0748989
0.105413
0.161726
0.252741
0.322069
35.2926
74.1758
92.4837
99.1614
98.2914
92.5569
83.984
74.0754
63.9043
54.1527
45.2165
37.2841
30.4092
24.561
19.6614
15.6085
12.2924
9.60523
7.44638
5.72545
4.36343
3.29251
2.45562
1.80533
1.30267
0.916077
0.620116
0.394468
0.223175
0.0935921
-0.00408628
-0.0774728
-0.132443
-0.173527
-0.204121
-0.226895
-0.243777
-0.256285
-0.26552
-0.272336
-0.277321
-0.280991
-0.283638
-0.285563
-0.286924
-0.287889
-0.288541
-0.288989
-0.289257
-0.289431
-0.289505
-0.289543
-0.289532
-0.289519
-0.28948
-0.289463
-0.289427
-0.28942
-0.289401
-0.289402
-0.28939
-0.289389
-0.289361
-0.289337
-0.289274
-0.289203
-0.289089
-0.288958
-0.288772
-0.288558
-0.288273
-0.287941
-0.287521
-0.287023
-0.286395
-0.285627
-0.284636
-0.283367
-0.28168
-0.279441
-0.276419
-0.272368
-0.26693
-0.259713
-0.25019
-0.237794
-0.221843
-0.201658
-0.176591
-0.146225
-0.110582
-0.0704684
-0.0277729
0.0146497
0.0539092
0.0913676
0.136627
0.218146
0.335391
0.399015
32.3254
69.0734
86.4163
92.6377
91.771
86.4056
78.4161
69.1866
59.707
50.6114
42.2709
34.8634
28.4411
22.9765
18.3972
14.6086
11.5083
8.99565
6.97665
5.36693
4.0927
3.09062
2.30737
1.69865
1.22802
0.865987
0.588777
0.377386
0.21689
0.0954577
0.00391201
-0.0648736
-0.1164
-0.154914
-0.183593
-0.204943
-0.22077
-0.232496
-0.241154
-0.247545
-0.25222
-0.25566
-0.258141
-0.259945
-0.261217
-0.262118
-0.262723
-0.263135
-0.263377
-0.26353
-0.263589
-0.263614
-0.263591
-0.263569
-0.263521
-0.263496
-0.263455
-0.263445
-0.263425
-0.263426
-0.263416
-0.263418
-0.263393
-0.263372
-0.263313
-0.263248
-0.263138
-0.263014
-0.262833
-0.262626
-0.262347
-0.262023
-0.261614
-0.261131
-0.260528
-0.259797
-0.258861
-0.257671
-0.256094
-0.254004
-0.251181
-0.247396
-0.242309
-0.235556
-0.226643
-0.215043
-0.200125
-0.181265
-0.157868
-0.129557
-0.09635
-0.0589389
-0.0188757
0.0217532
0.0615075
0.104113
0.161753
0.263819
0.401282
0.456291
29.2913
63.5192
79.7808
85.546
84.7119
79.7503
72.3868
63.8853
55.1491
46.7613
39.065
32.2264
26.2953
21.2473
17.0163
13.5152
10.6498
8.32716
6.46057
4.97212
3.79369
2.86677
2.14214
1.57887
1.1433
0.808162
0.551504
0.35575
0.207103
0.0946226
0.00981633
-0.053911
-0.10165
-0.137335
-0.163907
-0.18369
-0.198356
-0.209221
-0.217244
-0.223167
-0.227498
-0.230687
-0.232985
-0.234654
-0.235828
-0.236658
-0.237211
-0.237585
-0.237798
-0.237929
-0.237971
-0.237981
-0.237947
-0.237914
-0.237858
-0.237825
-0.237779
-0.237764
-0.237743
-0.237745
-0.237736
-0.23774
-0.237719
-0.237701
-0.237647
-0.237587
-0.237483
-0.237365
-0.237191
-0.23699
-0.236719
-0.236404
-0.236007
-0.235542
-0.234967
-0.234277
-0.233403
-0.232299
-0.230841
-0.228913
-0.226308
-0.222813
-0.218111
-0.211865
-0.203618
-0.192887
-0.179094
-0.161671
-0.140079
-0.113983
-0.0833879
-0.048874
-0.0116707
0.0268338
0.0664528
0.112798
0.179877
0.297052
0.448076
0.492751
26.2245
57.5987
72.6415
77.9359
77.1578
72.6327
65.9346
58.2055
50.2601
42.6271
35.6195
29.3901
23.9855
19.3845
15.5275
12.3353
9.72242
7.60411
5.90152
4.54364
3.46842
2.62254
1.96114
1.44692
1.04922
0.743162
0.508733
0.329903
0.194089
0.0913075
0.013807
-0.0444348
-0.088064
-0.120681
-0.144966
-0.163046
-0.17645
-0.186381
-0.193713
-0.199128
-0.203087
-0.206002
-0.2081
-0.209623
-0.210691
-0.211444
-0.21194
-0.212272
-0.212454
-0.21256
-0.212584
-0.21258
-0.212533
-0.21249
-0.212424
-0.212384
-0.212332
-0.212312
-0.21229
-0.212292
-0.212285
-0.212291
-0.212273
-0.212259
-0.21221
-0.212155
-0.212058
-0.211946
-0.211779
-0.211585
-0.211322
-0.211016
-0.210633
-0.210188
-0.209644
-0.209
-0.208193
-0.207182
-0.205854
-0.2041
-0.20173
-0.198549
-0.194261
-0.188562
-0.181034
-0.171238
-0.158655
-0.142772
-0.123109
-0.099368
-0.0715461
-0.0401131
-0.00600286
0.0300006
0.0687278
0.11715
0.190325
0.316697
0.474372
0.508186
23.1431
51.3834
65.0627
69.8598
69.1555
65.0962
59.0994
52.1831
45.0709
38.2351
31.9562
26.3723
21.5264
17.4
13.9402
11.0765
8.73206
6.83119
5.30317
4.08435
3.11909
2.35961
1.76567
1.30382
0.946558
0.671577
0.460918
0.300196
0.17812
0.0857257
0.0160529
-0.0363094
-0.0755331
-0.104858
-0.12669
-0.142945
-0.154995
-0.163923
-0.170514
-0.175383
-0.178941
-0.181561
-0.183445
-0.184811
-0.185765
-0.186434
-0.186869
-0.187156
-0.187305
-0.187385
-0.18739
-0.18737
-0.187311
-0.187257
-0.187182
-0.187134
-0.187076
-0.187052
-0.187028
-0.187029
-0.187024
-0.187032
-0.187017
-0.187007
-0.186963
-0.186914
-0.186824
-0.186719
-0.186558
-0.186371
-0.186116
-0.185821
-0.185454
-0.185032
-0.184522
-0.183928
-0.183192
-0.182282
-0.181091
-0.179524
-0.177404
-0.174557
-0.170713
-0.165597
-0.158835
-0.150036
-0.138737
-0.124487
-0.106864
-0.0856051
-0.0607018
-0.0325221
-0.00174003
0.0313533
0.068345
0.117019
0.192723
0.322194
0.479695
0.503158
20.0564
44.9325
57.1068
61.3722
60.7537
57.186
51.9227
45.8549
39.6138
33.6127
28.0981
23.1922
18.9335
15.3064
12.2647
9.74674
7.68516
6.01343
4.66945
3.5973
2.74809
2.07982
1.55714
1.15064
0.836142
0.594039
0.408544
0.267001
0.15948
0.0780977
0.0167256
-0.0294001
-0.0639494
-0.0897815
-0.10901
-0.123326
-0.133939
-0.141801
-0.147606
-0.151894
-0.155027
-0.157334
-0.158989
-0.160188
-0.16102
-0.161601
-0.161971
-0.162209
-0.162323
-0.162376
-0.16236
-0.162325
-0.162252
-0.162188
-0.162104
-0.162048
-0.161985
-0.161957
-0.16193
-0.161931
-0.161926
-0.161936
-0.161924
-0.161918
-0.16188
-0.161837
-0.161753
-0.161655
-0.161501
-0.161321
-0.161076
-0.160792
-0.160442
-0.160045
-0.159573
-0.159031
-0.158372
-0.157568
-0.156522
-0.155152
-0.153297
-0.150803
-0.147427
-0.142928
-0.136974
-0.129227
-0.11928
-0.106745
-0.0912584
-0.0725957
-0.0507416
-0.0259753
0.00124692
0.0310059
0.0653755
0.11241
0.187025
0.313577
0.464431
0.478856
16.9686
38.2951
48.8332
52.5285
52.003
48.9489
44.4472
39.2592
33.9222
28.7884
24.0692
19.8695
16.223
13.1168
10.5116
8.3546
6.58844
5.15614
4.00454
3.08576
2.35795
1.78514
1.33706
0.988541
0.718861
0.511231
0.352132
0.230714
0.138477
0.0686578
0.016006
-0.0235662
-0.0532026
-0.0753626
-0.0918534
-0.104132
-0.113233
-0.119975
-0.124951
-0.12863
-0.131314
-0.133291
-0.134706
-0.135728
-0.136432
-0.136919
-0.13722
-0.137408
-0.137485
-0.137509
-0.137472
-0.13742
-0.137335
-0.13726
-0.137166
-0.137103
-0.137035
-0.137002
-0.136974
-0.136973
-0.136968
-0.13698
-0.136971
-0.136969
-0.136937
-0.136901
-0.136824
-0.136732
-0.136585
-0.136412
-0.136176
-0.135905
-0.135574
-0.135203
-0.134772
-0.134287
-0.133709
-0.133016
-0.132122
-0.130958
-0.129381
-0.127255
-0.124369
-0.120516
-0.115409
-0.108759
-0.100224
-0.0894768
-0.0762116
-0.0602438
-0.041554
-0.0203468
0.00309416
0.0290988
0.0599619
0.103492
0.173515
0.291452
0.429749
0.436974
13.8815
31.5117
40.2978
43.3846
42.9554
40.433
36.7169
32.4355
28.0303
23.7918
19.8942
16.4249
13.412
10.8451
8.69185
6.90898
5.44901
4.26494
3.31285
2.55318
1.95136
1.47765
1.10705
0.818764
0.595666
0.423881
0.292238
0.191763
0.115433
0.057655
0.0140856
-0.0186593
-0.0431767
-0.0615101
-0.0751476
-0.0853017
-0.0928266
-0.0984008
-0.102514
-0.105556
-0.107773
-0.109406
-0.110569
-0.111407
-0.111976
-0.112366
-0.112595
-0.11273
-0.112767
-0.112761
-0.112703
-0.112635
-0.112536
-0.112451
-0.112349
-0.112278
-0.112206
-0.112168
-0.112137
-0.112134
-0.11213
-0.112143
-0.112138
-0.11214
-0.112113
-0.112083
-0.112013
-0.111928
-0.111788
-0.111623
-0.111397
-0.111139
-0.110827
-0.110486
-0.110097
-0.109673
-0.109179
-0.108602
-0.107867
-0.106916
-0.105626
-0.103884
-0.101506
-0.0983233
-0.0940943
-0.0885841
-0.0815115
-0.0726126
-0.0616415
-0.0484526
-0.0330262
-0.0155072
0.00394891
0.0258028
0.0523224
0.0906021
0.152793
0.256947
0.377495
0.379613
10.7954
24.6166
31.5534
33.9959
33.6638
31.6875
28.7768
25.4238
21.9735
18.653
15.5989
12.8797
10.5179
8.50543
6.81713
5.41911
4.27423
3.34566
2.59898
2.00316
1.53111
1.15952
0.868792
0.642612
0.467559
0.332756
0.22945
0.150595
0.090694
0.0453528
0.011167
-0.0145231
-0.0337501
-0.0481281
-0.0588161
-0.0667741
-0.0726694
-0.0770361
-0.0802566
-0.0826399
-0.0843727
-0.0856495
-0.0865523
-0.0872002
-0.0876297
-0.0879175
-0.0880718
-0.0881512
-0.0881489
-0.0881126
-0.0880318
-0.0879464
-0.087835
-0.0877393
-0.0876294
-0.0875521
-0.0874751
-0.0874331
-0.0873995
-0.0873945
-0.0873895
-0.0874038
-0.0874016
-0.0874083
-0.0873874
-0.0873638
-0.0873004
-0.0872214
-0.0870884
-0.0869303
-0.0867149
-0.0864711
-0.0861811
-0.085871
-0.085527
-0.0851661
-0.0847596
-0.0843022
-0.0837299
-0.0829996
-0.0820046
-0.0806576
-0.0788041
-0.0763117
-0.0729873
-0.0686501
-0.0630815
-0.0560819
-0.0474644
-0.0371238
-0.0250433
-0.0113221
0.00397064
0.0213202
0.042748
0.0742278
0.125747
0.211655
0.31009
0.309189
7.71032
17.6392
22.6496
24.4176
24.1818
22.7627
20.6725
18.2651
15.7877
13.403
11.2092
9.25564
7.55867
6.11256
4.89927
3.89453
3.07171
2.40434
1.86769
1.43944
1.10015
0.83304
0.624043
0.461442
0.335584
0.238658
0.164382
0.107683
0.0646186
0.0320267
0.00746166
-0.0109941
-0.0247957
-0.0351167
-0.0427795
-0.0484848
-0.0527082
-0.0558362
-0.0581408
-0.0598481
-0.0610839
-0.0619949
-0.0626302
-0.0630822
-0.0633682
-0.063551
-0.0636283
-0.0636506
-0.063607
-0.0635397
-0.0634361
-0.0633337
-0.0632095
-0.0631039
-0.0629867
-0.0629028
-0.0628218
-0.0627755
-0.0627392
-0.062732
-0.0627263
-0.0627415
-0.0627423
-0.0627534
-0.0627383
-0.0627206
-0.0626638
-0.0625907
-0.0624645
-0.062314
-0.0621095
-0.0618808
-0.0616137
-0.0613362
-0.0610391
-0.0607436
-0.0604273
-0.0600926
-0.0596871
-0.0591817
-0.0584889
-0.0575454
-0.0562279
-0.054442
-0.0520431
-0.0489053
-0.0448734
-0.0398126
-0.0335954
-0.0261573
-0.0174875
-0.00765217
0.00333068
0.0158817
0.0315949
0.0549938
0.0935103
0.157557
0.230422
0.228369
4.62587
10.6053
13.6339
14.7043
14.5636
13.7091
12.4506
11.0011
9.50934
8.07322
6.75178
5.57497
4.55268
3.68144
2.95039
2.34499
1.84923
1.44716
1.12385
0.865857
0.66146
0.500538
0.374621
0.276657
0.200822
0.142418
0.097672
0.0635112
0.0375801
0.0179624
0.00318912
-0.00790298
-0.016182
-0.0223729
-0.0269558
-0.0303676
-0.0328887
-0.0347556
-0.0361272
-0.0371461
-0.0378753
-0.0384136
-0.038776
-0.039028
-0.0391672
-0.0392428
-0.0392413
-0.0392051
-0.0391193
-0.0390207
-0.038894
-0.0387745
-0.0386378
-0.0385228
-0.0383989
-0.0383091
-0.0382243
-0.0381741
-0.0381349
-0.0381254
-0.0381187
-0.0381346
-0.0381384
-0.0381536
-0.0381443
-0.0381321
-0.0380814
-0.0380141
-0.0378945
-0.0377517
-0.0375586
-0.0373459
-0.0371027
-0.0368593
-0.0366109
-0.0363827
-0.0361585
-0.0359488
-0.0357128
-0.0354357
-0.0350493
-0.0345155
-0.0337424
-0.0326744
-0.0312157
-0.0292965
-0.0268248
-0.0237315
-0.0199478
-0.015451
-0.0102387
-0.00435354
0.00221063
0.00974276
0.0192745
0.0336359
0.0574208
0.0969471
0.141739
0.139997
1.5418
3.53855
4.55179
4.9103
4.86358
4.57824
4.15793
3.67372
3.17527
2.69536
2.25363
1.86021
1.51852
1.22728
0.982833
0.780417
0.614733
0.480419
0.372464
0.286329
0.218115
0.164405
0.12238
0.08969
0.0643784
0.0448854
0.0299702
0.0185809
0.00996064
0.00345303
-0.00142556
-0.00507599
-0.00777402
-0.00979069
-0.0112609
-0.0123548
-0.0131553
-0.0137475
-0.0141759
-0.0144986
-0.0147155
-0.0148766
-0.0149626
-0.0150119
-0.0150023
-0.0149687
-0.0148873
-0.0147919
-0.0146632
-0.0145331
-0.0143832
-0.0142467
-0.0140979
-0.0139739
-0.0138441
-0.013749
-0.0136608
-0.0136068
-0.0135649
-0.0135529
-0.0135452
-0.0135615
-0.0135681
-0.0135872
-0.0135834
-0.0135763
-0.0135313
-0.0134695
-0.0133564
-0.0132215
-0.0130402
-0.0128442
-0.0126259
-0.012418
-0.0122195
-0.0120601
-0.0119293
-0.011846
-0.0117809
-0.0117338
-0.0116565
-0.0115354
-0.0113118
-0.0109683
-0.0104589
-0.00976977
-0.00887256
-0.00776389
-0.00643396
-0.00490194
-0.00317525
-0.001279
0.000799997
0.00317734
0.00623887
0.0109725
0.0189623
0.0323414
0.0475475
0.047047
-1.54215
-3.53909
-4.55239
-4.91063
-4.86376
-4.57848
-4.15839
-3.67488
-3.1774
-2.69853
-2.25814
-1.86594
-1.52505
-1.23458
-0.99097
-0.789179
-0.623783
-0.489514
-0.381448
-0.295185
-0.226784
-0.17294
-0.130803
-0.0980044
-0.0726258
-0.0530778
-0.0380613
-0.0266017
-0.0178516
-0.0112039
-0.00615383
-0.00233682
0.000565235
0.00273721
0.00439035
0.00562207
0.00654824
0.00723524
0.00775345
0.00812972
0.00842731
0.00864519
0.00883721
0.00899187
0.00915143
0.00929511
0.00945714
0.00961214
0.0097841
0.00994571
0.0101185
0.010272
0.0104326
0.0105649
0.0106998
0.0107997
0.0108908
0.0109482
0.0109927
0.0110071
0.0110161
0.0109995
0.0109904
0.0109679
0.0109666
0.0109691
0.0110088
0.0110654
0.0111721
0.011299
0.011468
0.0116466
0.0118391
0.0120106
0.0121581
0.0122479
0.0122845
0.012241
0.0121349
0.0119516
0.0117196
0.0114272
0.0111003
0.0107171
0.0102743
0.00972942
0.0090472
0.0081652
0.00703445
0.00559397
0.00382591
0.00172087
-0.000706759
-0.00352902
-0.00703427
-0.0121272
-0.0202909
-0.0336065
-0.048493
-0.0474357
-4.62621
-10.6059
-13.6345
-14.7047
-14.5638
-13.7094
-12.4511
-11.0023
-9.5115
-8.07641
-6.75631
-5.58072
-4.55923
-3.68875
-2.95854
-2.35375
-1.85828
-1.45625
-1.13283
-0.874709
-0.670125
-0.509069
-0.38304
-0.284967
-0.209065
-0.150606
-0.105758
-0.0715274
-0.0454665
-0.0257095
-0.010766
0.000491783
0.00897342
0.0153187
0.0200837
0.0236321
0.0262786
0.0282401
0.0297016
0.0307746
0.0315852
0.0321811
0.0326507
0.0330093
0.0333189
0.0335729
0.0338156
0.0340301
0.0342453
0.0344383
0.0346338
0.0348038
0.0349757
0.0351158
0.0352552
0.035359
0.0354526
0.0355131
0.03556
0.0355767
0.035587
0.0355704
0.0355592
0.0355336
0.0355277
0.0355261
0.0355612
0.0356129
0.0357133
0.035832
0.0359883
0.0361488
0.0363148
0.0364491
0.0365451
0.0365649
0.0365072
0.0363373
0.0360609
0.0356486
0.035109
0.0344053
0.0335301
0.0324228
0.0310311
0.0292557
0.0269985
0.0241311
0.020546
0.0161409
0.0108881
0.00479622
-0.00211352
-0.0100869
-0.0200588
-0.0347768
-0.0587344
-0.0981978
-0.142673
-0.140381
-7.71065
-17.6397
-22.6502
-24.4179
-24.182
-22.763
-20.6731
-18.2664
-15.7899
-13.4063
-11.2137
-9.26143
-7.56526
-6.1199
-4.90743
-3.90329
-3.08075
-2.41342
-1.87665
-1.44828
-1.1088
-0.841564
-0.632455
-0.469745
-0.343818
-0.246837
-0.172459
-0.115689
-0.0724963
-0.0397663
-0.0150336
0.00358618
0.0175875
0.0280612
0.0359043
0.0417441
0.0460922
0.0493143
0.051709
0.0534715
0.05479
0.0557603
0.0565052
0.0570663
0.0575248
0.0578886
0.0582114
0.0584849
0.058743
0.0589671
0.0591848
0.059371
0.0595536
0.059701
0.059844
0.0599511
0.0600467
0.0601098
0.060159
0.0601777
0.0601894
0.060173
0.0601599
0.0601321
0.0601221
0.0601171
0.060148
0.0601952
0.0602892
0.0603996
0.060543
0.0606848
0.0608237
0.0609203
0.0609646
0.0609146
0.0607633
0.0604683
0.0600235
0.0593851
0.0585415
0.0574314
0.0560139
0.0541898
0.0518582
0.0488637
0.0450452
0.0402089
0.0341892
0.0268429
0.0181343
0.00809643
-0.00322593
-0.016211
-0.0323573
-0.0561073
-0.0947939
-0.158779
-0.231334
-0.228743
-10.7958
-24.617
-31.5539
-33.9962
-33.664
-31.6879
-28.7774
-25.4251
-21.9759
-18.6564
-15.6035
-12.8856
-10.5245
-8.51281
-6.82531
-5.42788
-4.28327
-3.35474
-2.60794
-2.01199
-1.53976
-1.16804
-0.877192
-0.650903
-0.475781
-0.340921
-0.237512
-0.158589
-0.0985586
-0.0530813
-0.0187315
0.00712007
0.0265426
0.0410705
0.0519362
0.0600257
0.0660446
0.0705047
0.0738158
0.0762556
0.0780732
0.0794117
0.0804276
0.0811884
0.0817938
0.082266
0.0826679
0.0829995
0.0832997
0.0835545
0.0837938
0.0839955
0.0841882
0.0843422
0.0844883
0.0845981
0.0846951
0.0847603
0.0848114
0.084832
0.084845
0.084829
0.0848145
0.084785
0.0847718
0.084764
0.0847913
0.0848342
0.0849219
0.0850239
0.0851539
0.0852767
0.0853881
0.0854469
0.0854397
0.0853205
0.0850768
0.0846589
0.084049
0.0831888
0.082047
0.080538
0.0785876
0.0760587
0.0728023
0.0686072
0.0632505
0.0564731
0.0480515
0.0378031
0.0256863
0.0117687
-0.00385464
-0.0216275
-0.043478
-0.0753009
-0.126986
-0.212835
-0.31097
-0.309549
-13.8818
-31.5121
-40.2983
-43.3849
-42.9557
-40.4335
-36.7177
-32.4369
-28.0328
-23.7952
-19.899
-16.4308
-13.4187
-10.8525
-8.70006
-6.91775
-5.45804
-4.274
-3.32179
-2.56199
-1.95999
-1.48615
-1.11544
-0.827042
-0.603873
-0.432029
-0.300282
-0.199738
-0.123281
-0.065369
-0.0216404
0.0112628
0.0359702
0.05445
0.0682617
0.0785433
0.0861904
0.0918569
0.0960612
0.0991615
0.101466
0.103164
0.104445
0.105401
0.10615
0.106728
0.107208
0.107596
0.107937
0.108222
0.108482
0.108699
0.108901
0.109061
0.10921
0.109322
0.109419
0.109486
0.109539
0.109561
0.109575
0.10956
0.109544
0.109514
0.109498
0.109488
0.109513
0.109552
0.109633
0.109726
0.109843
0.109946
0.11003
0.110051
0.109993
0.109806
0.109472
0.108934
0.108163
0.107087
0.105655
0.103757
0.101287
0.0980694
0.093909
0.0885396
0.0816767
0.0729972
0.0622196
0.0491233
0.0336642
0.0159566
-0.00381831
-0.0260817
-0.0530104
-0.0916225
-0.153975
-0.258072
-0.378332
-0.379953
-16.9689
-38.2954
-48.8336
-52.5289
-52.0033
-48.9494
-44.4481
-39.2608
-33.9247
-28.792
-24.074
-19.8755
-16.2298
-13.1243
-10.5198
-8.36338
-6.59746
-5.16518
-4.01346
-3.09455
-2.36657
-1.79362
-1.34544
-0.996802
-0.727049
-0.519359
-0.360154
-0.238668
-0.146304
-0.0763541
-0.0235486
0.0161779
0.0459977
0.0682995
0.0849601
0.0973612
0.106583
0.113416
0.118484
0.122223
0.124999
0.127045
0.128582
0.129729
0.130617
0.131299
0.131854
0.132297
0.132678
0.132992
0.133272
0.133503
0.133714
0.133879
0.13403
0.134143
0.134241
0.134309
0.134363
0.134386
0.134401
0.134387
0.134371
0.13434
0.134323
0.134312
0.134334
0.134369
0.134444
0.134529
0.134632
0.134715
0.134772
0.134755
0.134647
0.134394
0.133972
0.133318
0.132392
0.131107
0.129394
0.12712
0.124146
0.120261
0.115223
0.108713
0.100385
0.0898532
0.0767787
0.0609039
0.0421856
0.0207995
-0.00294599
-0.0293432
-0.0605988
-0.104449
-0.174627
-0.29251
-0.430534
-0.437291
-20.0566
-44.9329
-57.1072
-61.3725
-60.7541
-57.1867
-51.9237
-45.8566
-39.6166
-33.6164
-28.103
-23.1983
-18.9403
-15.314
-12.273
-9.75553
-7.69415
-6.02244
-4.67834
-3.60607
-2.75669
-2.08829
-1.56549
-1.15888
-0.844309
-0.602144
-0.416541
-0.274929
-0.167284
-0.0857734
-0.0242539
0.0220215
0.0567468
0.082715
0.102108
0.116542
0.127272
0.135224
0.141121
0.145473
0.148701
0.151082
0.152867
0.154196
0.155219
0.156001
0.156628
0.157124
0.157544
0.157885
0.158185
0.158428
0.158647
0.158817
0.158969
0.159083
0.159182
0.159249
0.159304
0.159328
0.159345
0.159331
0.159315
0.159285
0.159268
0.159256
0.159276
0.159308
0.159377
0.159453
0.159541
0.159605
0.159634
0.159581
0.159424
0.159108
0.158601
0.157836
0.15676
0.155276
0.153293
0.150657
0.1472
0.142672
0.136789
0.129178
0.119435
0.107112
0.0918122
0.0732431
0.0513656
0.0264315
-0.00107865
-0.0312107
-0.0659535
-0.113292
-0.188055
-0.314558
-0.465155
-0.479145
-23.1432
-51.3837
-65.0631
-69.8601
-69.1559
-65.097
-59.1006
-52.185
-45.0738
-38.2389
-31.9613
-26.3785
-21.5334
-17.4077
-13.9486
-11.0853
-8.74104
-6.84018
-5.31204
-4.09309
-3.12767
-2.36805
-1.77401
-1.31204
-0.954703
-0.679656
-0.468887
-0.308096
-0.185896
-0.0933781
-0.0235647
0.0289421
0.0683335
0.0977881
0.119779
0.136144
0.14831
0.157326
0.164009
0.168945
0.172604
0.175304
0.177324
0.178828
0.17998
0.180857
0.181553
0.1821
0.182556
0.182924
0.183241
0.183497
0.183722
0.183897
0.18405
0.184165
0.184262
0.18433
0.184385
0.18441
0.184427
0.184415
0.184399
0.184371
0.184353
0.184341
0.18436
0.18439
0.184452
0.184519
0.184593
0.184638
0.18464
0.184551
0.184347
0.18397
0.183382
0.182511
0.181294
0.17962
0.17738
0.1744
0.170481
0.165341
0.15865
0.149986
0.138886
0.124843
0.107403
0.0862378
0.0613169
0.0329818
0.00193039
-0.0315143
-0.0688574
-0.117818
-0.193662
-0.323087
-0.48035
-0.503416
-26.2246
-57.5989
-72.6418
-77.9363
-77.1583
-72.6336
-65.936
-58.2076
-50.2632
-42.6311
-35.6247
-29.3964
-23.9926
-19.3923
-15.5358
-12.3441
-9.73137
-7.61308
-5.91036
-4.55236
-3.47697
-2.63096
-1.96946
-1.45513
-1.05734
-0.751215
-0.516672
-0.337773
-0.201837
-0.0989345
-0.0213004
0.0370801
0.0808684
0.113607
0.138044
0.156228
0.169745
0.179762
0.187187
0.192671
0.196736
0.199738
0.201981
0.203651
0.204924
0.205891
0.206653
0.207248
0.207738
0.20813
0.208464
0.208731
0.208963
0.209141
0.209295
0.209409
0.209506
0.209573
0.209628
0.209653
0.20967
0.20966
0.209645
0.209619
0.209603
0.209591
0.209609
0.209637
0.209693
0.209751
0.209811
0.209836
0.209812
0.209688
0.20944
0.209005
0.208341
0.20737
0.206019
0.204166
0.201685
0.198381
0.194027
0.188306
0.18085
0.171186
0.158797
0.143115
0.123631
0.0999842
0.0721511
0.0405761
0.00621671
-0.0301144
-0.0691693
-0.11786
-0.191164
-0.317495
-0.474952
-0.50841
-29.2914
-63.5193
-79.781
-85.5464
-84.7124
-79.7514
-72.3884
-63.8876
-55.1524
-46.7655
-39.0704
-32.2329
-26.3025
-21.2551
-17.0247
-13.524
-10.6588
-8.3361
-6.46938
-4.98082
-3.80222
-2.87518
-2.15044
-1.58705
-1.1514
-0.816187
-0.559412
-0.363588
-0.21482
-0.102222
-0.0172897
0.0465702
0.0944585
0.130258
0.156975
0.176853
0.191628
0.202578
0.210693
0.216689
0.221133
0.224416
0.226868
0.228693
0.23008
0.231132
0.231955
0.232595
0.233117
0.233531
0.233881
0.234158
0.234395
0.234577
0.234731
0.234845
0.234941
0.235006
0.23506
0.235085
0.235103
0.235094
0.235081
0.235058
0.235044
0.235034
0.235051
0.235076
0.235127
0.235176
0.235222
0.235228
0.235178
0.235022
0.234731
0.234241
0.233507
0.232442
0.230967
0.228948
0.226242
0.222634
0.217873
0.211609
0.203435
0.192832
0.17923
0.162001
0.140583
0.114581
0.0839815
0.0493398
0.0119088
-0.0268982
-0.0668197
-0.113413
-0.180611
-0.297749
-0.448576
-0.492939
-32.3254
-69.0734
-86.4164
-92.638
-91.7717
-86.4067
-78.4178
-69.1891
-59.7105
-50.6159
-42.2764
-34.87
-28.4484
-22.9844
-18.4056
-14.6174
-11.5173
-9.00455
-6.98544
-5.37561
-4.10122
-3.09901
-2.31565
-1.70681
-1.2361
-0.873985
-0.596655
-0.385192
-0.224575
-0.103029
-0.0113641
0.0575478
0.109214
0.147833
0.176649
0.198087
0.214019
0.225827
0.234578
0.241046
0.24584
0.249383
0.252027
0.253996
0.255489
0.256618
0.257499
0.25818
0.258731
0.259166
0.259529
0.259815
0.260057
0.260242
0.260396
0.26051
0.260604
0.260668
0.260721
0.260745
0.260763
0.260756
0.260746
0.260725
0.260714
0.260706
0.260723
0.260747
0.260792