/*--------------------------------*- C++ -*----------------------------------*\
| =========                 |                                                 |
| \\      /  F ield         | OpenFOAM: The Open Source CFD Toolbox           |
|  \\    /   O peration     | Version:  v1906                                 |
|   \\  /    A nd           | Web:      www.OpenFOAM.com                      |
|    \\/     M anipulation  |                                                 |
\*---------------------------------------------------------------------------*/
FoamFile
{
    version     2.0;
    format      ascii;
    class       surfaceScalarField;
    location    "1";
    object      phi;
}
// * * * * * * * * * * * * * * * * * * * * * * * * * * * * * * * * * * * * * //

dimensions      [0 3 -1 0 0 0 0];
oriented        oriented;


internalField   nonuniform List<scalar> 
7860
(
0.00283445
0.00216555
0.00262136
0.000213093
0.00260899
1.23729e-05
0.00260647
2.51807e-06
0.00260917
-2.69708e-06
0.00260788
1.29276e-06
0.00260675
1.12677e-06
0.00260515
1.60184e-06
0.00260388
1.26255e-06
0.00260275
1.13346e-06
0.00260183
9.17806e-07
0.00260105
7.79066e-07
0.00260041
6.46522e-07
0.00259986
5.45614e-07
0.0025994
4.57288e-07
0.00259902
3.81109e-07
0.0025987
3.16609e-07
0.00259844
2.63654e-07
0.00259823
2.17163e-07
0.00259805
1.75723e-07
0.00259791
1.41968e-07
0.00259779
1.1463e-07
0.0025977
9.07301e-08
0.00259763
7.11812e-08
0.00259758
5.48097e-08
0.00259753
4.31254e-08
0.0025975
3.33664e-08
0.00259747
2.48161e-08
0.00259746
1.86788e-08
0.00259744
1.45608e-08
0.00259743
1.04279e-08
0.00259742
7.63843e-09
0.00259742
5.45851e-09
0.00259741
4.39301e-09
0.00259741
3.15003e-09
0.00259741
1.76576e-09
0.00259741
1.25696e-09
0.0025974
1.7305e-09
0.0025974
6.59295e-10
0.0025974
9.84738e-12
0.0025974
1.48057e-10
0.0025974
5.36448e-10
0.0025974
4.818e-11
0.0025974
6.55282e-11
0.0025974
-1.67195e-10
0.0025974
2.39939e-11
0.0025974
-3.00402e-12
0.0025974
5.49886e-10
0.0025974
2.43779e-10
0.0025974
-2.16679e-10
0.0025974
-4.28493e-10
0.0025974
3.35803e-10
0.0025974
2.06368e-10
0.0025974
-1.66883e-10
0.0025974
-5.20954e-10
0.0025974
1.28571e-10
0.0025974
2.22016e-10
0.0025974
3.634e-11
0.0025974
-4.9434e-10
0.0025974
2.65713e-11
0.0025974
8.05869e-11
0.0025974
1.34323e-10
0.0025974
-2.22963e-10
0.0025974
-1.44312e-10
0.0025974
-1.91131e-11
0.0025974
2.75304e-10
0.0025974
-8.28599e-11
0.0025974
-7.95001e-12
0.0025974
-8.32335e-11
0.0025974
1.6328e-10
0.0025974
-5.1738e-11
0.0025974
8.33941e-11
0.0025974
-7.65857e-11
0.0025974
1.7919e-10
0.0025974
3.71996e-12
0.0025974
5.94756e-11
0.0025974
1.17868e-11
0.0025974
1.38355e-10
0.0025974
1.74781e-10
0.0025974
5.18091e-10
0.0025974
3.61121e-10
0.0025974
6.77371e-10
0.0025974
1.07476e-09
0.0025974
1.70506e-09
0.0025974
2.13903e-09
0.00259739
3.37067e-09
0.00259739
4.92293e-09
0.00259738
7.12146e-09
0.00259737
1.01329e-08
0.00259736
1.42936e-08
0.00259734
1.98595e-08
0.00259731
2.67273e-08
0.00259727
3.40315e-08
0.00259724
3.81112e-08
0.0025972
3.39382e-08
0.00259718
2.31124e-08
0.00259708
1.02011e-07
0.00259638
6.96476e-07
0.00259378
2.60338e-06
-1.18933e-06
0.00456786
0.00259768
0.0043756
0.000405358
0.00434677
4.12036e-05
0.00434299
6.29673e-06
0.00434598
-5.68778e-06
0.00434442
2.84442e-06
0.00434277
2.78451e-06
0.00434052
3.84762e-06
0.00433868
3.10712e-06
0.00433703
2.78033e-06
0.00433568
2.26937e-06
0.00433453
1.92683e-06
0.00433357
1.60556e-06
0.00433276
1.35578e-06
0.00433208
1.13981e-06
0.0043315
9.5543e-07
0.00433102
7.95989e-07
0.00433063
6.62256e-07
0.0043303
5.47747e-07
0.00433003
4.46761e-07
0.0043298
3.61669e-07
0.00432963
2.92306e-07
0.00432949
2.32376e-07
0.00432937
1.83554e-07
0.00432928
1.43234e-07
0.00432922
1.11978e-07
0.00432916
8.63889e-08
0.00432912
6.52291e-08
0.00432909
4.93461e-08
0.00432907
3.78212e-08
0.00432905
2.70589e-08
0.00432904
2.03197e-08
0.00432903
1.46467e-08
0.00432902
1.07588e-08
0.00432902
8.41005e-09
0.00432901
6.04716e-09
0.00432901
3.2618e-09
0.00432901
3.27885e-09
0.00432901
2.09717e-09
0.004329
8.97369e-10
0.004329
4.16736e-10
0.004329
6.40524e-10
0.004329
-2.0663e-10
0.004329
4.356e-10
0.004329
3.72298e-10
0.004329
6.29129e-10
0.004329
1.10374e-10
0.004329
6.78655e-10
0.004329
6.14224e-10
0.004329
2.40461e-10
0.004329
-7.32135e-10
0.004329
2.97505e-11
0.004329
1.06177e-10
0.004329
9.29243e-12
0.004329
-9.55413e-10
0.004329
-3.45299e-10
0.004329
-9.66739e-11
0.004329
1.79449e-10
0.004329
-6.3593e-10
0.004329
2.78234e-11
0.004329
4.36885e-12
0.004329
1.39093e-10
0.004329
-3.21378e-10
0.004329
-1.81193e-11
0.004329
-1.43359e-10
0.004329
2.97481e-10
0.004329
-1.16724e-10
0.004329
1.81656e-10
0.004329
-1.99944e-10
0.004329
2.02771e-10
0.004329
-2.81619e-11
0.004329
2.17904e-10
0.004329
-2.20957e-10
0.004329
1.92278e-10
0.004329
-5.02597e-12
0.004329
2.46914e-11
0.004329
-2.81287e-11
0.004329
3.97472e-10
0.004329
3.31188e-10
0.004329
1.05052e-09
0.004329
1.09086e-09
0.004329
1.75699e-09
0.004329
2.57594e-09
0.004329
4.23432e-09
0.00432899
5.68291e-09
0.00432899
8.5113e-09
0.00432898
1.24047e-08
0.00432897
1.79903e-08
0.00432895
2.56064e-08
0.00432893
3.6162e-08
0.0043289
5.00518e-08
0.00432886
6.75025e-08
0.00432881
8.72599e-08
0.00432874
1.01348e-07
0.00432867
1.06032e-07
0.00432858
1.12283e-07
0.00432827
4.18192e-07
0.00432693
2.02923e-06
0.00432235
7.18454e-06
7.91211e-06
0.00507225
0.00252543
0.00495569
0.000521919
0.004923
7.38932e-05
0.00492074
8.56033e-06
0.00492256
-7.51438e-06
0.0049214
4.00491e-06
0.00491971
4.47643e-06
0.0049176
5.95331e-06
0.0049158
4.91472e-06
0.0049142
4.37482e-06
0.00491288
3.59513e-06
0.00491175
3.05089e-06
0.00491081
2.55114e-06
0.00491001
2.15601e-06
0.00490933
1.81562e-06
0.00490876
1.52737e-06
0.00490828
1.27673e-06
0.00490788
1.06297e-06
0.00490754
8.80964e-07
0.00490727
7.22715e-07
0.00490704
5.87084e-07
0.00490686
4.74651e-07
0.00490671
3.79378e-07
0.0049066
3.00462e-07
0.0049065
2.35703e-07
0.00490643
1.84724e-07
0.00490638
1.42494e-07
0.00490633
1.0801e-07
0.0049063
8.19569e-08
0.00490627
6.25063e-08
0.00490626
4.52585e-08
0.00490624
3.33428e-08
0.00490623
2.48183e-08
0.00490622
1.82366e-08
0.00490622
1.34505e-08
0.00490621
1.00235e-08
0.00490621
6.36541e-09
0.00490621
4.96326e-09
0.00490621
3.28138e-09
0.0049062
1.59403e-09
0.0049062
6.24798e-10
0.0049062
9.40892e-10
0.0049062
6.6039e-11
0.0049062
5.91152e-10
0.0049062
9.84619e-10
0.0049062
1.39622e-09
0.0049062
8.51776e-10
0.0049062
9.02197e-10
0.0049062
7.40535e-10
0.0049062
6.71021e-10
0.0049062
-4.7725e-10
0.0049062
-2.78169e-10
0.0049062
-2.08335e-10
0.0049062
-1.93538e-10
0.0049062
-1.19805e-09
0.0049062
-8.09928e-10
0.0049062
-3.34148e-10
0.0049062
1.91992e-10
0.0049062
-4.01482e-10
0.0049062
8.97987e-11
0.0049062
1.20882e-10
0.0049062
1.96289e-10
0.0049062
-2.76218e-10
0.0049062
7.49943e-11
0.0049062
-8.29487e-11
0.0049062
2.78741e-10
0.0049062
-5.5813e-11
0.0049062
2.04547e-10
0.0049062
-1.35744e-10
0.0049062
1.1407e-10
0.0049062
1.36001e-11
0.0049062
2.35424e-10
0.0049062
-2.02825e-10
0.0049062
6.61383e-11
0.0049062
-5.98243e-11
0.0049062
3.05217e-11
0.0049062
-2.83036e-12
0.0049062
6.03734e-10
0.0049062
6.50041e-10
0.0049062
1.47164e-09
0.0049062
1.99871e-09
0.0049062
2.91019e-09
0.0049062
4.27888e-09
0.00490619
6.78887e-09
0.00490619
9.48666e-09
0.00490619
1.38581e-08
0.00490618
2.0127e-08
0.00490617
2.91509e-08
0.00490615
4.14095e-08
0.00490613
5.83489e-08
0.0049061
8.08506e-08
0.00490606
1.0911e-07
0.004906
1.4335e-07
0.00490593
1.72123e-07
0.00490583
2.02765e-07
0.00490569
2.58325e-07
0.00490521
8.92736e-07
0.00490359
3.64969e-06
0.00489775
1.30286e-05
2.2742e-05
0.0052101
0.00231533
0.0051398
0.000592225
0.00511272
0.000100971
0.00511159
9.69186e-06
0.00511268
-8.60412e-06
0.00511185
4.83632e-06
0.00511037
5.95457e-06
0.0051086
7.7215e-06
0.00510704
6.47293e-06
0.00510567
5.74392e-06
0.00510453
4.74443e-06
0.00510355
4.02669e-06
0.00510273
3.37606e-06
0.00510202
2.85713e-06
0.00510143
2.4105e-06
0.00510092
2.0316e-06
0.0051005
1.70418e-06
0.00510014
1.42143e-06
0.00509984
1.17998e-06
0.00509959
9.71761e-07
0.00509939
7.92414e-07
0.00509922
6.41322e-07
0.00509908
5.14414e-07
0.00509898
4.08988e-07
0.00509889
3.2136e-07
0.00509882
2.52614e-07
0.00509877
1.9539e-07
0.00509873
1.48536e-07
0.0050987
1.12754e-07
0.00509867
8.58239e-08
0.00509865
6.33319e-08
0.00509864
4.60779e-08
0.00509863
3.41893e-08
0.00509862
2.58098e-08
0.00509862
1.88176e-08
0.00509861
1.36724e-08
0.00509861
9.40673e-09
0.00509861
6.92373e-09
0.00509861
4.3993e-09
0.0050986
2.44483e-09
0.0050986
8.57897e-10
0.0050986
1.09465e-09
0.0050986
6.45637e-10
0.0050986
8.2022e-10
0.0050986
1.31204e-09
0.0050986
2.00295e-09
0.0050986
1.5278e-09
0.0050986
1.29854e-09
0.0050986
8.30994e-10
0.0050986
9.21388e-10
0.0050986
-1.4922e-10
0.0050986
-3.96988e-10
0.0050986
-4.71737e-10
0.0050986
-4.35135e-10
0.0050986
-1.38134e-09
0.0050986
-1.06157e-09
0.0050986
-4.08109e-10
0.0050986
2.41234e-10
0.0050986
-1.59226e-10
0.0050986
2.29551e-10
0.0050986
2.07266e-10
0.0050986
2.79158e-10
0.0050986
-2.58217e-10
0.0050986
6.08579e-11
0.0050986
-8.45227e-11
0.0050986
2.46091e-10
0.0050986
1.98642e-12
0.0050986
1.323e-10
0.0050986
-1.02597e-10
0.0050986
9.4136e-11
0.0050986
2.06143e-11
0.0050986
2.45703e-10
0.0050986
-1.18243e-10
0.0050986
6.71248e-11
0.0050986
-1.17593e-10
0.0050986
1.2219e-10
0.0050986
1.27558e-10
0.0050986
7.97e-10
0.0050986
1.03863e-09
0.0050986
1.90665e-09
0.0050986
2.85661e-09
0.0050986
4.07009e-09
0.0050986
5.88216e-09
0.00509859
9.16833e-09
0.00509859
1.30025e-08
0.00509859
1.88297e-08
0.00509858
2.7161e-08
0.00509857
3.9273e-08
0.00509855
5.57186e-08
0.00509853
7.82744e-08
0.00509851
1.08678e-07
0.00509847
1.47042e-07
0.00509842
1.96306e-07
0.00509834
2.43826e-07
0.00509823
3.14498e-07
0.00509805
4.4372e-07
0.00509748
1.46071e-06
0.00509583
5.30332e-06
0.00508956
1.92936e-05
3.78187e-05
0.00523345
0.00208188
0.00519437
0.000631305
0.00517372
0.000121617
0.00517341
1.0004e-05
0.00517404
-9.2361e-06
0.00517352
5.35343e-06
0.00517233
7.14287e-06
0.00517095
9.10983e-06
0.0051697
7.72206e-06
0.0051686
6.84257e-06
0.00516767
5.67424e-06
0.00516688
4.81964e-06
0.0051662
4.05014e-06
0.00516563
3.43293e-06
0.00516514
2.89948e-06
0.00516472
2.44913e-06
0.00516437
2.06086e-06
0.00516406
1.72304e-06
0.00516381
1.43282e-06
0.0051636
1.18316e-06
0.00516342
9.67911e-07
0.00516328
7.85001e-07
0.00516316
6.30873e-07
0.00516307
5.03541e-07
0.00516299
3.96083e-07
0.00516293
3.12077e-07
0.00516289
2.42343e-07
0.00516285
1.85021e-07
0.00516282
1.40358e-07
0.0051628
1.06683e-07
0.00516278
7.98974e-08
0.00516277
5.83321e-08
0.00516276
4.26361e-08
0.00516275
3.27665e-08
0.00516275
2.41449e-08
0.00516274
1.74101e-08
0.00516274
1.2069e-08
0.00516274
8.96303e-09
0.00516274
5.44057e-09
0.00516274
3.47051e-09
0.00516274
1.21517e-09
0.00516274
1.05381e-09
0.00516274
9.7475e-10
0.00516274
1.17946e-09
0.00516274
1.32429e-09
0.00516274
2.38689e-09
0.00516274
1.8583e-09
0.00516274
1.71927e-09
0.00516273
9.42972e-10
0.00516273
1.20508e-09
0.00516273
1.05197e-10
0.00516273
-2.80012e-10
0.00516273
-6.45484e-10
0.00516274
-4.87858e-10
0.00516274
-1.58188e-09
0.00516274
-1.14995e-09
0.00516274
-5.73213e-10
0.00516274
3.68894e-10
0.00516274
-8.08975e-11
0.00516274
3.97888e-10
0.00516274
1.08977e-10
0.00516274
3.45709e-10
0.00516274
-3.5312e-10
0.00516274
1.51703e-11
0.00516274
-2.39239e-10
0.00516274
2.4877e-10
0.00516274
-4.00621e-11
0.00516274
1.44181e-10
0.00516274
-1.74567e-10
0.00516274
2.35705e-10
0.00516274
-6.28417e-12
0.00516274
3.68871e-10
0.00516274
-5.40223e-11
0.00516274
2.06189e-10
0.00516274
-1.49746e-10
0.00516274
2.74731e-10
0.00516274
2.65495e-10
0.00516273
1.01565e-09
0.00516273
1.35501e-09
0.00516273
2.39447e-09
0.00516273
3.5044e-09
0.00516273
5.19496e-09
0.00516273
7.24103e-09
0.00516273
1.12477e-08
0.00516273
1.59999e-08
0.00516272
2.31658e-08
0.00516272
3.31219e-08
0.00516271
4.78346e-08
0.00516269
6.78056e-08
0.00516268
9.50989e-08
0.00516265
1.32239e-07
0.00516262
1.79823e-07
0.00516257
2.43812e-07
0.0051625
3.12936e-07
0.00516239
4.33007e-07
0.00516218
6.51165e-07
0.00516159
2.04507e-06
0.00516003
6.87033e-06
0.00515414
2.51782e-05
5.09504e-05
0.00522271
0.00185917
0.00520671
0.000647314
0.005192
0.000136325
0.00519224
9.76539e-06
0.00519259
-9.59327e-06
0.00519235
5.59606e-06
0.00519147
8.02536e-06
0.00519046
1.01183e-05
0.00518953
8.65649e-06
0.0051887
7.66571e-06
0.005188
6.37867e-06
0.00518739
5.42384e-06
0.00518688
4.56767e-06
0.00518643
3.87779e-06
0.00518605
3.28068e-06
0.00518572
2.77563e-06
0.00518544
2.34191e-06
0.0051852
1.96313e-06
0.005185
1.63558e-06
0.00518483
1.35351e-06
0.00518469
1.11028e-06
0.00518457
9.02819e-07
0.00518447
7.26684e-07
0.0051844
5.82191e-07
0.00518433
4.58331e-07
0.00518428
3.61429e-07
0.00518424
2.81841e-07
0.00518421
2.16241e-07
0.00518419
1.64098e-07
0.00518417
1.24492e-07
0.00518416
9.39658e-08
0.00518415
6.95219e-08
0.00518414
5.01335e-08
0.00518413
3.86389e-08
0.00518413
2.89107e-08
0.00518412
2.10358e-08
0.00518412
1.43684e-08
0.00518412
1.08884e-08
0.00518412
6.34256e-09
0.00518411
4.47123e-09
0.00518411
1.70285e-09
0.00518411
9.55753e-10
0.00518411
9.92469e-10
0.00518411
1.61598e-09
0.00518411
1.26057e-09
0.00518411
2.64123e-09
0.00518411
1.92243e-09
0.00518411
2.10842e-09
0.00518411
1.11634e-09
0.00518411
1.55995e-09
0.00518411
3.07198e-10
0.00518411
-4.82209e-11
0.00518411
-7.67351e-10
0.00518411
-3.93758e-10
0.00518411
-1.79987e-09
0.00518411
-1.146e-09
0.00518411
-7.89955e-10
0.00518411
5.42939e-10
0.00518411
-8.22186e-11
0.00518411
5.78463e-10
0.00518411
-1.04224e-10
0.00518411
3.74416e-10
0.00518411
-5.0222e-10
0.00518411
-2.59261e-11
0.00518411
-4.98624e-10
0.00518411
2.71208e-10
0.00518411
-1.49622e-10
0.00518411
2.35849e-10
0.00518411
-3.0582e-10
0.00518411
4.70108e-10
0.00518411
-2.55997e-11
0.00518411
5.65201e-10
0.00518411
8.17316e-12
0.00518411
4.22144e-10
0.00518411
-1.40846e-10
0.00518411
4.52828e-10
0.00518411
4.037e-10
0.00518411
1.26508e-09
0.00518411
1.58326e-09
0.00518411
2.91051e-09
0.00518411
3.97578e-09
0.00518411
6.18577e-09
0.00518411
8.36527e-09
0.00518411
1.29585e-08
0.0051841
1.83926e-08
0.0051841
2.67456e-08
0.0051841
3.79073e-08
0.00518409
5.46414e-08
0.00518408
7.74326e-08
0.00518407
1.0858e-07
0.00518405
1.51178e-07
0.00518402
2.06889e-07
0.00518398
2.84804e-07
0.00518392
3.76118e-07
0.0051838
5.50542e-07
0.00518359
8.61953e-07
0.00518302
2.61565e-06
0.00518164
8.24948e-06
0.00517659
3.02237e-05
6.15838e-05
0.00520403
0.00165514
0.0052056
0.000645747
0.00519622
0.000145701
0.00519682
9.17052e-06
0.00519699
-9.77151e-06
0.00519699
5.60458e-06
0.0051964
8.61132e-06
0.00519575
1.07705e-05
0.00519512
9.28847e-06
0.00519456
8.22478e-06
0.00519407
6.86486e-06
0.00519365
5.84464e-06
0.00519329
4.93247e-06
0.00519297
4.19409e-06
0.0051927
3.55485e-06
0.00519246
3.01216e-06
0.00519225
2.54701e-06
0.00519208
2.14047e-06
0.00519193
1.78701e-06
0.0051918
1.4815e-06
0.00519169
1.21809e-06
0.0051916
9.92911e-07
0.00519153
8.00191e-07
0.00519146
6.43002e-07
0.00519142
5.07152e-07
0.00519138
4.00159e-07
0.00519134
3.12986e-07
0.00519132
2.41217e-07
0.0051913
1.83425e-07
0.00519129
1.39017e-07
0.00519127
1.05035e-07
0.00519127
7.89324e-08
0.00519126
5.67467e-08
0.00519125
4.33051e-08
0.00519125
3.28176e-08
0.00519125
2.41791e-08
0.00519124
1.6271e-08
0.00519124
1.25477e-08
0.00519124
7.08579e-09
0.00519124
5.23095e-09
0.00519124
2.27046e-09
0.00519124
9.20696e-10
0.00519124
8.21713e-10
0.00519124
1.98107e-09
0.00519124
1.23898e-09
0.00519124
2.82626e-09
0.00519124
1.89609e-09
0.00519124
2.40756e-09
0.00519124
1.34121e-09
0.00519124
1.9237e-09
0.00519124
5.42936e-10
0.00519124
1.81741e-10
0.00519124
-8.74766e-10
0.00519124
-2.52074e-10
0.00519124
-1.92434e-09
0.00519124
-1.11896e-09
0.00519124
-9.69295e-10
0.00519124
6.97867e-10
0.00519124
-6.30795e-11
0.00519124
7.46402e-10
0.00519124
-3.08455e-10
0.00519124
3.22409e-10
0.00519124
-6.49395e-10
0.00519124
-7.55439e-11
0.00519124
-7.73429e-10
0.00519124
2.41014e-10
0.00519124
-2.6387e-10
0.00519124
3.34683e-10
0.00519124
-4.13358e-10
0.00519124
6.80215e-10
0.00519124
1.73653e-12
0.00519124
7.67854e-10
0.00519124
8.66778e-11
0.00519124
6.44653e-10
0.00519124
-7.10622e-11
0.00519124
6.06231e-10
0.00519124
5.51952e-10
0.00519124
1.51396e-09
0.00519124
1.74402e-09
0.00519124
3.35652e-09
0.00519124
4.33051e-09
0.00519124
6.9435e-09
0.00519124
9.25545e-09
0.00519123
1.42488e-08
0.00519123
2.01814e-08
0.00519123
2.93806e-08
0.00519123
4.15301e-08
0.00519122
5.96562e-08
0.00519121
8.45717e-08
0.0051912
1.1867e-07
0.00519119
1.65467e-07
0.00519117
2.27965e-07
0.00519113
3.18442e-07
0.00519108
4.3155e-07
0.00519097
6.60327e-07
0.00519077
1.06237e-06
0.00519025
3.13341e-06
0.00518912
9.38254e-06
0.00518512
3.42201e-05
6.96212e-05
0.00518542
0.00146971
0.00520063
0.000630542
0.00519597
0.000150363
0.00519677
8.36662e-06
0.00519681
-9.81291e-06
0.00519699
5.42348e-06
0.00519668
8.92068e-06
0.00519636
1.10971e-05
0.00519601
9.6376e-06
0.0051957
8.53674e-06
0.00519542
7.14505e-06
0.00519517
6.09126e-06
0.00519495
5.15136e-06
0.00519476
4.38693e-06
0.00519459
3.72475e-06
0.00519444
3.16124e-06
0.00519431
2.67779e-06
0.00519419
2.25552e-06
0.00519409
1.88712e-06
0.00519401
1.56703e-06
0.00519394
1.29103e-06
0.00519387
1.05478e-06
0.00519382
8.50959e-07
0.00519378
6.85358e-07
0.00519374
5.42087e-07
0.00519372
4.27818e-07
0.00519369
3.35286e-07
0.00519368
2.59372e-07
0.00519366
1.97808e-07
0.00519365
1.50086e-07
0.00519364
1.13047e-07
0.00519363
8.59355e-08
0.00519363
6.22773e-08
0.00519363
4.67595e-08
0.00519362
3.56749e-08
0.00519362
2.66996e-08
0.00519362
1.78226e-08
0.00519362
1.38439e-08
0.00519362
7.68573e-09
0.00519362
5.66051e-09
0.00519361
2.76347e-09
0.00519361
1.00793e-09
0.00519361
6.15956e-10
0.00519361
2.20069e-09
0.00519361
1.25772e-09
0.00519361
2.93251e-09
0.00519361
1.89956e-09
0.00519361
2.60754e-09
0.00519361
1.57117e-09
0.00519361
2.22245e-09
0.00519361
8.25562e-10
0.00519361
3.88787e-10
0.00519361
-9.87937e-10
0.00519361
-1.45295e-10
0.00519361
-1.88084e-09
0.00519361
-1.05481e-09
0.00519361
-1.0509e-09
0.00519361
8.01322e-10
0.00519361
1.53457e-11
0.00519362
8.70189e-10
0.00519362
-4.42271e-10
0.00519362
1.72759e-10
0.00519362
-7.97115e-10
0.00519362
-1.53863e-10
0.00519362
-1.01272e-09
0.00519362
1.25046e-10
0.00519362
-3.45768e-10
0.00519362
3.93152e-10
0.00519362
-4.4474e-10
0.00519362
8.22546e-10
0.00519362
9.18305e-11
0.00519362
9.4922e-10
0.00519362
1.91158e-10
0.00519362
8.3494e-10
0.00519362
5.02065e-11
0.00519361
7.15113e-10
0.00519361
6.89624e-10
0.00519361
1.74322e-09
0.00519361
1.85542e-09
0.00519361
3.6667e-09
0.00519361
4.6079e-09
0.00519361
7.42706e-09
0.00519361
9.89831e-09
0.00519361
1.50924e-08
0.00519361
2.13726e-08
0.00519361
3.11575e-08
0.00519361
4.39285e-08
0.0051936
6.29496e-08
0.0051936
8.92616e-08
0.00519359
1.25407e-07
0.00519358
1.75174e-07
0.00519357
2.42897e-07
0.00519354
3.44085e-07
0.00519349
4.77108e-07
0.0051934
7.56181e-07
0.00519322
1.23932e-06
0.00519279
3.56708e-06
0.00519193
1.02368e-05
0.00518907
3.70801e-05
7.50897e-05
0.00516896
0.00130075
0.00519494
0.000604564
0.00519442
0.000150882
0.00519532
7.46395e-06
0.00519524
-9.72848e-06
0.00519556
5.09856e-06
0.00519551
8.97787e-06
0.00519547
1.11297e-05
0.00519538
9.72635e-06
0.0051953
8.62038e-06
0.00519521
7.23344e-06
0.00519513
6.17461e-06
0.00519505
5.23252e-06
0.00519497
4.46272e-06
0.0051949
3.79479e-06
0.00519484
3.22608e-06
0.00519478
2.73684e-06
0.00519472
2.30987e-06
0.00519468
1.93668e-06
0.00519463
1.61071e-06
0.00519459
1.32922e-06
0.00519456
1.08829e-06
0.00519453
8.79095e-07
0.00519451
7.08903e-07
0.00519449
5.62558e-07
0.00519447
4.44159e-07
0.00519446
3.48439e-07
0.00519445
2.70417e-07
0.00519444
2.06812e-07
0.00519443
1.57392e-07
0.00519442
1.18094e-07
0.00519442
9.02304e-08
0.00519442
6.62473e-08
0.00519441
4.90796e-08
0.00519441
3.73817e-08
0.00519441
2.82658e-08
0.00519441
1.88513e-08
0.00519441
1.46919e-08
0.00519441
8.17858e-09
0.00519441
5.92222e-09
0.00519441
3.20379e-09
0.00519441
1.22823e-09
0.00519441
4.19603e-10
0.00519441
2.25075e-09
0.00519441
1.29826e-09
0.00519441
2.93764e-09
0.00519441
1.95145e-09
0.00519441
2.75236e-09
0.00519441
1.75854e-09
0.00519441
2.44098e-09
0.00519441
1.11173e-09
0.00519441
6.20048e-10
0.00519441
-1.08858e-09
0.00519441
-9.86082e-11
0.00519441
-1.67696e-09
0.00519441
-9.0494e-10
0.00519441
-1.0214e-09
0.00519441
8.41432e-10
0.00519441
1.39288e-10
0.00519441
9.34271e-10
0.00519441
-5.19361e-10
0.00519441
-4.70804e-11
0.00519441
-9.77062e-10
0.00519441
-2.63949e-10
0.00519441
-1.19984e-09
0.00519441
-5.79607e-11
0.00519441
-3.98554e-10
0.00519441
4.19347e-10
0.00519441
-3.9061e-10
0.00519441
9.1085e-10
0.00519441
2.32684e-10
0.00519441
1.12007e-09
0.00519441
3.26235e-10
0.00519441
9.94432e-10
0.00519441
1.96438e-10
0.00519441
8.11472e-10
0.00519441
7.82818e-10
0.00519441
1.95073e-09
0.00519441
1.93002e-09
0.00519441
3.81483e-09
0.00519441
4.81045e-09
0.0051944
7.64725e-09
0.0051944
1.02753e-08
0.0051944
1.54952e-08
0.0051944
2.19006e-08
0.0051944
3.19855e-08
0.0051944
4.5152e-08
0.0051944
6.4562e-08
0.0051944
9.15203e-08
0.00519439
1.28819e-07
0.00519439
1.80347e-07
0.00519438
2.51577e-07
0.00519436
3.61115e-07
0.00519433
5.1074e-07
0.00519425
8.32563e-07
0.00519411
1.38192e-06
0.00519378
3.89463e-06
0.00519323
1.07935e-05
0.00519152
3.8781e-05
7.80846e-05
0.00515491
0.00114584
0.00518951
0.000569962
0.00519263
0.000147765
0.00519355
6.53886e-06
0.00519334
-9.51402e-06
0.00519377
4.67288e-06
0.00519394
8.80917e-06
0.00519417
1.08994e-05
0.00519431
9.57803e-06
0.00519444
8.49511e-06
0.00519453
7.14503e-06
0.0051946
6.10646e-06
0.00519464
5.18494e-06
0.00519468
4.42865e-06
0.0051947
3.77047e-06
0.00519472
3.21064e-06
0.00519473
2.72741e-06
0.00519473
2.30594e-06
0.00519473
1.93713e-06
0.00519473
1.61366e-06
0.00519472
1.33341e-06
0.00519472
1.09362e-06
0.00519471
8.84867e-07
0.00519471
7.13823e-07
0.0051947
5.68205e-07
0.0051947
4.49142e-07
0.00519469
3.52415e-07
0.00519469
2.74252e-07
0.00519468
2.10283e-07
0.00519468
1.60638e-07
0.00519468
1.20279e-07
0.00519468
9.18892e-08
0.00519468
6.83665e-08
0.00519467
5.03809e-08
0.00519467
3.81213e-08
0.00519467
2.89785e-08
0.00519467
1.94324e-08
0.00519467
1.4989e-08
0.00519467
8.44368e-09
0.00519467
5.8184e-09
0.00519467
3.33609e-09
0.00519467
1.53735e-09
0.00519467
3.17528e-10
0.00519467
2.10956e-09
0.00519467
1.31078e-09
0.00519467
2.80515e-09
0.00519467
1.96321e-09
0.00519467
2.83923e-09
0.00519467
1.85722e-09
0.00519467
2.53397e-09
0.00519467
1.30309e-09
0.00519467
8.39268e-10
0.00519467
-1.14229e-09
0.00519467
-1.50528e-10
0.00519467
-1.43181e-09
0.00519467
-7.22831e-10
0.00519467
-9.26828e-10
0.00519467
7.83505e-10
0.00519467
2.31949e-10
0.00519467
9.14617e-10
0.00519467
-5.8573e-10
0.00519467
-3.12925e-10
0.00519467
-1.19289e-09
0.00519467
-3.91386e-10
0.00519467
-1.32592e-09
0.00519467
-2.42177e-10
0.00519467
-4.47177e-10
0.00519467
4.05582e-10
0.00519467
-2.77406e-10
0.00519467
9.67996e-10
0.00519467
3.93493e-10
0.00519467
1.23336e-09
0.00519467
4.85165e-10
0.00519467
1.12575e-09
0.00519467
3.35774e-10
0.00519467
9.171e-10
0.00519467
8.23509e-10
0.00519467
2.10781e-09
0.00519467
1.98584e-09
0.00519467
3.79713e-09
0.00519467
4.90765e-09
0.00519467
7.62549e-09
0.00519467
1.04003e-08
0.00519467
1.54757e-08
0.00519467
2.18695e-08
0.00519467
3.19772e-08
0.00519467
4.51912e-08
0.00519467
6.45577e-08
0.00519467
9.14201e-08
0.00519467
1.28958e-07
0.00519467
1.81063e-07
0.00519467
2.53954e-07
0.00519466
3.69038e-07
0.00519464
5.30857e-07
0.00519459
8.85043e-07
0.00519449
1.48196e-06
0.00519428
4.10137e-06
0.00519403
1.10439e-05
0.00519347
3.93411e-05
7.87465e-05
0.00514307
0.00100278
0.00518463
0.000528406
0.00519093
0.000141462
0.00519183
5.63959e-06
0.00519147
-9.16028e-06
0.00519196
4.18412e-06
0.00519233
8.44125e-06
0.0051928
1.04357e-05
0.00519316
9.21594e-06
0.00519347
8.18048e-06
0.00519372
6.89514e-06
0.00519393
5.89921e-06
0.0051941
5.01827e-06
0.00519423
4.29255e-06
0.00519434
3.65815e-06
0.00519444
3.11959e-06
0.00519451
2.65339e-06
0.00519457
2.24677e-06
0.00519462
1.89063e-06
0.00519465
1.57744e-06
0.00519468
1.30492e-06
0.0051947
1.07154e-06
0.00519472
8.68766e-07
0.00519473
7.00829e-07
0.00519474
5.59108e-07
0.00519475
4.42833e-07
0.00519475
3.47456e-07
0.00519475
2.70895e-07
0.00519476
2.08281e-07
0.00519476
1.59619e-07
0.00519476
1.19586e-07
0.00519476
9.10963e-08
0.00519476
6.83964e-08
0.00519476
5.04909e-08
0.00519476
3.78866e-08
0.00519476
2.87643e-08
0.00519476
1.96081e-08
0.00519476
1.48521e-08
0.00519476
8.57642e-09
0.00519476
5.70939e-09
0.00519476
3.20868e-09
0.00519476
1.71322e-09
0.00519476
2.86862e-10
0.00519476
1.79173e-09
0.00519476
1.30017e-09
0.00519476
2.60512e-09
0.00519476
1.95519e-09
0.00519476
2.91281e-09
0.00519476
1.97452e-09
0.00519476
2.57732e-09
0.00519476
1.49384e-09
0.00519476
1.08903e-09
0.00519476
-1.03157e-09
0.00519476
-1.84886e-10
0.00519476
-1.0878e-09
0.00519476
-4.38881e-10
0.00519476
-7.09314e-10
0.00519476
6.94259e-10
0.00519476
3.02268e-10
0.00519476
8.24128e-10
0.00519476
-6.457e-10
0.00519476
-6.01433e-10
0.00519476
-1.45954e-09
0.00519476
-5.5084e-10
0.00519476
-1.41682e-09
0.00519476
-4.09549e-10
0.00519476
-4.40657e-10
0.00519476
3.85169e-10
0.00519476
-1.03024e-10
0.00519476
9.93171e-10
0.00519476
6.43048e-10
0.00519476
1.32189e-09
0.00519476
6.80695e-10
0.00519476
1.26773e-09
0.00519476
4.97996e-10
0.00519476
1.04712e-09
0.00519476
8.63291e-10
0.00519476
2.18955e-09
0.00519476
2.04264e-09
0.00519476
3.62178e-09
0.00519476
4.87794e-09
0.00519476
7.36695e-09
0.00519476
1.02281e-08
0.00519476
1.50686e-08
0.00519476
2.12748e-08
0.00519476
3.11409e-08
0.00519476
4.40793e-08
0.00519476
6.3001e-08
0.00519477
8.91062e-08
0.00519477
1.25928e-07
0.00519477
1.77452e-07
0.00519478
2.50091e-07
0.00519478
3.67546e-07
0.00519477
5.36378e-07
0.00519475
9.10455e-07
0.00519469
1.53387e-06
0.00519462
4.17893e-06
0.00519467
1.0988e-05
0.00519521
3.88077e-05
7.72439e-05
0.00513315
0.000869629
0.00518033
0.000481224
0.00518941
0.000132378
0.00519026
4.79327e-06
0.00518976
-8.65885e-06
0.00519028
3.66345e-06
0.00519082
7.90023e-06
0.00519149
9.76713e-06
0.00519204
8.6631e-06
0.00519253
7.69608e-06
0.00519292
6.49938e-06
0.00519326
5.56584e-06
0.00519353
4.74283e-06
0.00519376
4.06275e-06
0.00519395
3.46494e-06
0.00519411
2.95839e-06
0.00519425
2.51938e-06
0.00519436
2.13604e-06
0.00519445
1.80006e-06
0.00519452
1.50415e-06
0.00519458
1.24562e-06
0.00519463
1.02351e-06
0.00519467
8.31542e-07
0.0051947
6.70929e-07
0.00519472
5.35885e-07
0.00519474
4.25425e-07
0.00519475
3.33968e-07
0.00519476
2.60544e-07
0.00519477
2.0097e-07
0.00519477
1.54343e-07
0.00519478
1.15922e-07
0.00519478
8.8014e-08
0.00519478
6.633e-08
0.00519478
4.92491e-08
0.00519478
3.67805e-08
0.00519478
2.76493e-08
0.00519479
1.9248e-08
0.00519479
1.42996e-08
0.00519479
8.36806e-09
0.00519479
5.47349e-09
0.00519479
2.97263e-09
0.00519479
1.75497e-09
0.00519479
3.39739e-10
0.00519479
1.34859e-09
0.00519479
1.18015e-09
0.00519479
2.31257e-09
0.00519479
1.85227e-09
0.00519479
2.8617e-09
0.00519479
2.03648e-09
0.00519479
2.46249e-09
0.00519479
1.56324e-09
0.00519479
1.25242e-09
0.00519479
-8.05627e-10
0.00519479
-2.67059e-10
0.00519479
-7.90925e-10
0.00519479
-1.85679e-10
0.00519479
-4.35464e-10
0.00519479
5.38347e-10
0.00519479
2.97671e-10
0.00519479
6.44561e-10
0.00519479
-7.24855e-10
0.00519479
-8.96948e-10
0.00519479
-1.72163e-09
0.00519479
-7.64806e-10
0.00519479
-1.44479e-09
0.00519479
-6.01107e-10
0.00519479
-4.15547e-10
0.00519479
3.32522e-10
0.00519479
1.16077e-10
0.00519479
9.77375e-10
0.00519479
8.84811e-10
0.00519479
1.38731e-09
0.00519479
8.56635e-10
0.00519479
1.38877e-09
0.00519479
6.65077e-10
0.00519479
1.1557e-09
0.00519479
9.10624e-10
0.00519479
2.15385e-09
0.00519479
2.07948e-09
0.00519479
3.31472e-09
0.00519479
4.68265e-09
0.00519479
6.90471e-09
0.00519479
9.74883e-09
0.00519479
1.42685e-08
0.00519479
2.0145e-08
0.00519479
2.95075e-08
0.00519479
4.18781e-08
0.0051948
5.99478e-08
0.0051948
8.47541e-08
0.00519481
1.19907e-07
0.00519482
1.69688e-07
0.00519483
2.40186e-07
0.00519484
3.56558e-07
0.00519485
5.26745e-07
0.00519485
9.06943e-07
0.00519485
1.53452e-06
0.0051949
4.12456e-06
0.00519526
1.06336e-05
0.00519682
3.72492e-05
7.37631e-05
0.00512488
0.000744751
0.00517661
0.000429492
0.0051881
0.000120886
0.00518888
4.01215e-06
0.00518823
-8.00527e-06
0.00518876
3.1352e-06
0.00518945
7.21104e-06
0.00519029
8.92046e-06
0.00519101
7.94217e-06
0.00519165
7.06139e-06
0.00519217
5.97349e-06
0.00519262
5.11968e-06
0.00519299
4.36955e-06
0.00519331
3.74815e-06
0.00519357
3.19852e-06
0.0051938
2.73319e-06
0.00519399
2.33053e-06
0.00519415
1.97803e-06
0.00519428
1.66893e-06
0.00519439
1.39645e-06
0.00519447
1.15769e-06
0.00519455
9.51547e-07
0.0051946
7.74332e-07
0.00519465
6.25231e-07
0.00519468
4.99572e-07
0.00519471
3.97384e-07
0.00519473
3.12405e-07
0.00519475
2.43627e-07
0.00519476
1.88561e-07
0.00519477
1.45027e-07
0.00519478
1.09267e-07
0.00519478
8.27729e-08
0.00519479
6.2358e-08
0.00519479
4.65484e-08
0.00519479
3.47815e-08
0.00519479
2.57744e-08
0.00519479
1.82542e-08
0.00519479
1.33812e-08
0.0051948
7.86914e-09
0.0051948
5.05568e-09
0.0051948
2.63006e-09
0.0051948
1.59106e-09
0.0051948
4.0443e-10
0.0051948
9.00089e-10
0.0051948
9.41606e-10
0.0051948
1.98158e-09
0.0051948
1.68992e-09
0.0051948
2.70855e-09
0.0051948
2.06895e-09
0.0051948
2.27407e-09
0.0051948
1.55411e-09
0.0051948
1.3166e-09
0.0051948
-4.81448e-10
0.0051948
-2.87406e-10
0.0051948
-5.12369e-10
0.0051948
4.59195e-11
0.0051948
-1.07569e-10
0.0051948
3.99502e-10
0.0051948
2.04545e-10
0.0051948
3.97421e-10
0.0051948
-8.27377e-10
0.0051948
-1.21831e-09
0.0051948
-1.95524e-09
0.0051948
-1.0419e-09
0.0051948
-1.44382e-09
0.0051948
-7.7797e-10
0.0051948
-3.78282e-10
0.0051948
2.73594e-10
0.0051948
3.2016e-10
0.0051948
9.97386e-10
0.0051948
1.10533e-09
0.0051948
1.46434e-09
0.0051948
1.00917e-09
0.0051948
1.48962e-09
0.0051948
8.4933e-10
0.0051948
1.22936e-09
0.0051948
9.76523e-10
0.0051948
2.01185e-09
0.0051948
2.06055e-09
0.0051948
2.92681e-09
0.0051948
4.28998e-09
0.0051948
6.25334e-09
0.0051948
8.95784e-09
0.0051948
1.30903e-08