/*--------------------------------*- C++ -*----------------------------------*\
| =========                 |                                                 |
| \\      /  F ield         | OpenFOAM: The Open Source CFD Toolbox           |
|  \\    /   O peration     | Version:  v1906                                 |
|   \\  /    A nd           | Web:      www.OpenFOAM.com                      |
|    \\/     M anipulation  |                                                 |
\*---------------------------------------------------------------------------*/
FoamFile
{
    version     2.0;
    format      ascii;
    class       surfaceScalarField;
    location    "1";
    object      phi;
}
// * * * * * * * * * * * * * * * * * * * * * * * * * * * * * * * * * * * * * //

dimensions      [0 3 -1 0 0 0 0];
oriented        oriented;


internalField   nonuniform List<scalar> 
7860
(
0.0026655
0.0023345
0.0026027
6.27952e-05
0.00261643
-1.37253e-05
0.00260114
1.52847e-05
0.00260693
-5.79001e-06
0.00259995
6.98201e-06
0.00260184
-1.89144e-06
0.00259878
3.06266e-06
0.00259934
-5.52712e-07
0.00259802
1.31954e-06
0.00259818
-1.61591e-07
0.00259764
5.43044e-07
0.00259769
-5.68886e-08
0.00259748
2.13293e-07
0.00259751
-2.58054e-08
0.00259742
7.96977e-08
0.00259744
-1.27984e-08
0.00259741
2.99069e-08
0.00259741
-6.17104e-09
0.0025974
1.08999e-08
0.00259741
-3.21784e-09
0.0025974
4.00965e-09
0.0025974
-5.71936e-10
0.0025974
9.78633e-10
0.0025974
-9.26686e-10
0.0025974
7.31354e-10
0.0025974
-1.24046e-10
0.0025974
5.31535e-11
0.0025974
-4.17958e-10
0.0025974
-1.55704e-10
0.0025974
2.85212e-10
0.0025974
1.73558e-11
0.0025974
7.58468e-11
0.0025974
-7.53767e-11
0.0025974
-3.07877e-10
0.0025974
5.89954e-11
0.0025974
5.2429e-11
0.0025974
-4.54929e-10
0.0025974
1.08949e-11
0.0025974
1.52861e-10
0.0025974
1.01009e-10
0.0025974
1.03546e-10
0.0025974
1.45617e-10
0.0025974
-1.24314e-10
0.0025974
2.37409e-10
0.0025974
-2.20101e-11
0.0025974
-1.22834e-10
0.0025974
4.29707e-12
0.0025974
7.29637e-11
0.0025974
-1.17888e-10
0.0025974
9.9122e-11
0.0025974
-9.11525e-11
0.0025974
1.53572e-12
0.0025974
3.84958e-11
0.0025974
-1.60916e-11
0.0025974
7.96384e-11
0.0025974
-2.1128e-11
0.0025974
2.35289e-11
0.0025974
-3.31281e-11
0.0025974
-1.52725e-11
0.0025974
-4.05409e-11
0.0025974
-7.78316e-11
0.0025974
-2.26207e-11
0.0025974
-6.96456e-12
0.0025974
-1.63543e-11
0.0025974
1.09746e-10
0.0025974
5.10346e-11
0.0025974
3.87764e-11
0.0025974
1.80365e-10
0.0025974
-7.22497e-11
0.0025974
1.91793e-10
0.0025974
-5.43518e-11
0.0025974
9.26363e-11
0.0025974
2.17914e-11
0.0025974
4.40593e-11
0.0025974
-2.0773e-12
0.0025974
7.67079e-11
0.0025974
-1.14324e-11
0.0025974
2.07996e-11
0.0025974
-8.06801e-11
0.0025974
-6.36053e-11
0.0025974
1.18125e-11
0.0025974
-1.2135e-10
0.0025974
5.35618e-11
0.0025974
5.46403e-12
0.0025974
6.3281e-11
0.0025974
1.66114e-10
0.0025974
1.1376e-10
0.0025974
3.06369e-10
0.0025974
4.95801e-10
0.0025974
1.2514e-09
0.0025974
1.87543e-09
0.00259739
4.97246e-09
0.00259738
7.65705e-09
0.00259737
1.83809e-08
0.00259735
2.0385e-08
0.00259729
5.38507e-08
0.00259732
-2.70661e-08
0.00259628
1.03783e-06
-2.60972e-07
0.00439901
0.00293549
0.0043428
0.000118996
0.00435481
-2.57296e-05
0.00433629
3.38079e-05
0.00434243
-1.19375e-05
0.00433363
1.57893e-05
0.00433546
-3.72008e-06
0.00433148
7.03879e-06
0.00433189
-9.58093e-07
0.00433013
3.07863e-06
0.00433019
-2.2021e-07
0.00432945
1.28281e-06
0.00432945
-6.36262e-08
0.00432916
5.07141e-07
0.00432917
-3.12872e-08
0.00432905
1.90971e-07
0.00432906
-1.89669e-08
0.00432902
7.10857e-08
0.00432902
-1.07141e-08
0.00432901
2.57242e-08
0.00432901
-5.49826e-09
0.004329
8.84238e-09
0.00432901
-1.39386e-09
0.004329
3.00247e-09
0.004329
-1.95768e-09
0.004329
1.248e-09
0.004329
-6.80943e-10
0.004329
-1.9379e-10
0.004329
-6.56637e-10
0.004329
-3.43236e-10
0.00432901
4.3992e-10
0.00432901
3.45786e-10
0.00432901
1.71431e-10
0.00432901
-9.78838e-11
0.00432901
-4.59843e-10
0.00432901
-2.15393e-10
0.00432901
4.27969e-10
0.00432901
-3.60575e-10
0.00432901
2.24808e-10
0.00432901
7.5338e-10
0.00432901
6.39237e-10
0.00432901
3.97277e-10
0.00432901
5.34427e-10
0.00432901
-1.61297e-10
0.00432901
4.24704e-10
0.00432901
1.63428e-10
0.004329
-9.63085e-11
0.004329
3.86147e-11
0.004329
3.8814e-10
0.004329
-2.44638e-10
0.004329
6.81726e-11
0.004329
-2.95304e-10
0.004329
-2.49902e-10
0.00432901
-1.9154e-10
0.004329
-1.02201e-10
0.004329
-1.43731e-10
0.004329
5.08979e-11
0.004329
-4.00902e-11
0.004329
-6.46255e-11
0.004329
-1.19959e-10
0.00432901
-9.97469e-11
0.00432901
-3.0041e-10
0.00432901
-7.16728e-11
0.00432901
-1.62895e-10
0.00432901
1.95605e-11
0.00432901
2.47145e-10
0.004329
2.2198e-10
0.004329
1.81046e-10
0.004329
4.34524e-10
0.004329
-4.89025e-11
0.004329
3.31924e-10
0.004329
-8.32924e-11
0.004329
1.23695e-10
0.004329
-2.35781e-11
0.004329
7.82763e-11
0.004329
-4.52539e-11
0.004329
1.03921e-10
0.004329
-1.83497e-11
0.004329
-9.07793e-12
0.004329
-2.61252e-10
0.004329
-1.14086e-10
0.004329
-1.25169e-10
0.004329
-1.6538e-10
0.004329
5.63967e-12
0.004329
8.19139e-11
0.004329
1.27731e-10
0.004329
3.64161e-10
0.004329
2.82439e-10
0.004329
8.15319e-10
0.004329
1.26183e-09
0.004329
3.21038e-09
0.00432899
5.06015e-09
0.00432899
1.26159e-08
0.00432897
1.98651e-08
0.00432895
4.71437e-08
0.00432891
5.21658e-08
0.00432881
1.56682e-07
0.00432881
-3.02526e-08
0.00432707
2.78245e-06
5.32082e-06
0.0049528
0.00298269
0.00492555
0.000146244
0.00492824
-2.84157e-05
0.00491576
4.62867e-05
0.00491836
-1.45398e-05
0.00491184
2.23142e-05
0.00491228
-4.1617e-06
0.00490917
1.01562e-05
0.00490901
-7.98737e-07
0.00490756
4.5244e-06
0.00490738
-3.98082e-08
0.00490675
1.90941e-06
0.00490666
3.12995e-08
0.00490641
7.60266e-07
0.00490637
5.35212e-09
0.00490627
2.87574e-07
0.00490626
-8.26784e-09
0.00490623
1.06578e-07
0.00490622
-8.60265e-09
0.00490621
3.81829e-08
0.00490621
-4.87777e-09
0.00490621
1.26862e-08
0.00490621
-1.54987e-09
0.0049062
4.94158e-09
0.0049062
-2.52607e-09
0.0049062
1.49313e-09
0.0049062
-1.16017e-09
0.0049062
-5.43704e-10
0.00490621
-6.65345e-10
0.00490621
-4.87591e-10
0.00490621
4.75984e-10
0.00490621
7.486e-10
0.00490621
2.29498e-10
0.00490621
-1.04817e-10
0.00490621
-4.87398e-10
0.00490621
-6.50397e-10
0.00490621
8.6903e-10
0.00490621
-3.65456e-11
0.00490621
4.12497e-10
0.00490621
1.39296e-09
0.00490621
1.25614e-09
0.00490621
6.65178e-10
0.00490621
9.30059e-10
0.00490621
-1.60829e-10
0.00490621
5.22627e-10
0.00490621
4.27165e-10
0.00490621
4.74506e-11
0.00490621
7.6023e-11
0.0049062
7.99741e-10
0.0049062
-3.25891e-10
0.0049062
-1.93e-11
0.0049062
-5.2024e-10
0.00490621
-5.94005e-10
0.00490621
-5.01453e-10
0.00490621
-1.86253e-10
0.0049062
-4.55397e-10
0.0049062
1.99084e-10
0.0049062
-8.1941e-11
0.0049062
-7.40357e-11
0.0049062
-2.23663e-10
0.00490621
-1.61361e-10
0.00490621
-5.60315e-10
0.00490621
-1.53465e-10
0.00490621
-3.71282e-10
0.00490621
5.79827e-11
0.00490621
3.7873e-10
0.00490621
4.38054e-10
0.0049062
3.63961e-10
0.0049062
6.98369e-10
0.0049062
1.44933e-11
0.0049062
4.01619e-10
0.0049062
-1.40782e-10
0.0049062
6.7604e-11
0.0049062
-1.6113e-10
0.0049062
5.95282e-11
0.0049062
-1.25453e-10
0.0049062
1.10854e-10
0.0049062
5.25557e-12
0.0049062
-1.94111e-11
0.0049062
-4.26938e-10
0.0049062
-1.32516e-10
0.0049062
-3.04088e-10
0.0049062
-1.76213e-10
0.0049062
-7.73631e-11
0.0049062
1.69394e-10
0.0049062
2.19952e-10
0.0049062
5.67258e-10
0.0049062
5.26319e-10
0.0049062
1.39594e-09
0.0049062
2.15105e-09
0.0049062
5.26412e-09
0.00490619
8.5861e-09
0.00490619
2.04843e-08
0.00490617
3.27179e-08
0.00490614
7.7346e-08
0.00490611
8.49941e-08
0.00490598
2.85687e-07
0.00490595
-1.582e-09
0.00490368
5.05581e-06
1.40698e-05
0.00513072
0.00285197
0.00511658
0.000160378
0.00511675
-2.85776e-05
0.00510785
5.51871e-05
0.00510904
-1.57331e-05
0.00510402
2.73336e-05
0.00510397
-4.10935e-06
0.00510149
1.26373e-05
0.00510114
-4.52618e-07
0.00509995
5.71667e-06
0.00509969
2.15632e-07
0.00509916
2.44118e-06
0.00509903
1.59795e-07
0.00509881
9.79011e-07
0.00509876
5.70127e-08
0.00509868
3.7234e-07
0.00509866
9.51307e-09
0.00509863
1.37979e-07
0.00509862
-3.57876e-09
0.00509861
4.88413e-08
0.00509861
-2.84497e-09
0.00509861
1.6163e-08
0.00509861
-1.66071e-09
0.0050986
6.5395e-09
0.0050986
-2.65021e-09
0.0050986
1.74387e-09
0.0050986
-1.53537e-09
0.0050986
-1.00557e-09
0.00509861
-5.5418e-10
0.00509861
-4.42835e-10
0.00509861
3.89647e-10
0.00509861
1.0208e-09
0.00509861
2.44068e-10
0.00509861
-6.29032e-11
0.00509861
-3.48207e-10
0.00509861
-1.16241e-09
0.00509861
1.17621e-09
0.00509861
3.74914e-10
0.00509861
6.29532e-10
0.00509861
1.93547e-09
0.00509861
1.81083e-09
0.00509861
9.02019e-10
0.00509861
1.36148e-09
0.00509861
-1.1253e-10
0.00509861
5.64074e-10
0.00509861
6.90873e-10
0.00509861
3.4708e-10
0.0050986
1.13984e-10
0.0050986
1.19287e-09
0.0050986
-3.23555e-10
0.0050986
-9.88691e-11
0.0050986
-7.50954e-10
0.0050986
-9.50358e-10
0.00509861
-8.24181e-10
0.00509861
-2.51851e-10
0.0050986
-7.59383e-10
0.0050986
3.32826e-10
0.0050986
-8.42636e-11
0.0050986
-9.62548e-11
0.0050986
-3.12614e-10
0.00509861
-2.74708e-10
0.00509861
-8.39751e-10
0.00509861
-2.57494e-10
0.00509861
-5.80067e-10
0.00509861
7.25447e-11
0.00509861
5.02888e-10
0.00509861
6.89512e-10
0.0050986
5.79931e-10
0.0050986
9.7732e-10
0.0050986
9.24561e-11
0.0050986
4.72611e-10
0.0050986
-2.23846e-10
0.0050986
-9.06306e-12
0.0050986
-3.64376e-10
0.0050986
1.99307e-11
0.0050986
-2.00263e-10
0.0050986
1.27888e-10
0.0050986
4.34299e-11
0.0050986
1.24424e-11
0.0050986
-5.39495e-10
0.0050986
-1.47878e-10
0.0050986
-4.78755e-10
0.0050986
-2.05906e-10
0.0050986
-1.54574e-10
0.0050986
2.24442e-10
0.0050986
3.34104e-10
0.0050986
7.68596e-10
0.0050986
8.14228e-10
0.0050986
1.99006e-09
0.0050986
3.03897e-09
0.0050986
7.20721e-09
0.00509859
1.19266e-08
0.00509859
2.77698e-08
0.00509857
4.44693e-08
0.00509855
1.05702e-07
0.00509852
1.1497e-07
0.00509838
4.25125e-07
0.00509832
5.14947e-08
0.00509583
7.54689e-06
2.28424e-05
0.00518452
0.00266746
0.00517763
0.000167266
0.00517701
-2.79596e-05
0.00517083
6.13716e-05
0.00517128
-1.61879e-05
0.00516751
3.11076e-05
0.00516726
-3.86429e-06
0.00516532
1.45836e-05
0.00516493
-6.40218e-08
0.00516397
6.67714e-06
0.0051637
4.85252e-07
0.00516326
2.88001e-06
0.00516312
2.9605e-07
0.00516294
1.16344e-06
0.00516288
1.13526e-07
0.00516281
4.4491e-07
0.00516279
2.99193e-08
0.00516276
1.65079e-07
0.00516275
3.02076e-09
0.00516275
5.79789e-08
0.00516274
-2.89025e-10
0.00516274
1.92684e-08
0.00516274
-1.41174e-09
0.00516274
7.98485e-09
0.00516274
-2.6373e-09
0.00516274
1.89385e-09
0.00516274
-1.74322e-09
0.00516274
-1.4535e-09
0.00516274
-4.315e-10
0.00516274
-3.79453e-10
0.00516274
2.78979e-10
0.00516274
1.31971e-09
0.00516274
2.595e-10
0.00516274
-1.16256e-10
0.00516274
-2.3057e-10
0.00516274
-1.69328e-09
0.00516274
1.37726e-09
0.00516274
7.27987e-10
0.00516274
7.50675e-10
0.00516274
2.39442e-09
0.00516274
2.34648e-09
0.00516274
1.08506e-09
0.00516274
1.7074e-09
0.00516274
-4.50227e-11
0.00516274
6.08286e-10
0.00516274
9.14481e-10
0.00516274
6.89395e-10
0.00516274
1.53801e-10
0.00516274
1.56529e-09
0.00516274
-2.90313e-10
0.00516274
-2.21787e-10
0.00516274
-9.63945e-10
0.00516274
-1.31209e-09
0.00516274
-1.15448e-09
0.00516274
-2.78839e-10
0.00516274
-1.0298e-09
0.00516274
4.7718e-10
0.00516274
-4.49712e-11
0.00516274
-1.27197e-10
0.00516274
-4.04504e-10
0.00516274
-4.12376e-10
0.00516274
-1.13675e-09
0.00516274
-3.89336e-10
0.00516274
-7.88278e-10
0.00516274
1.03166e-10
0.00516274
6.34244e-10
0.00516274
9.74014e-10
0.00516274
8.23574e-10
0.00516274
1.27158e-09
0.00516274
1.85054e-10
0.00516274
5.29037e-10
0.00516274
-3.16286e-10
0.00516274
-1.10449e-10
0.00516274
-5.75945e-10
0.00516274
-2.94459e-11
0.00516274
-2.54728e-10
0.00516274
1.67129e-10
0.00516274
1.14227e-10
0.00516274
8.73134e-11
0.00516274
-6.20839e-10
0.00516274
-1.43608e-10
0.00516274
-6.35265e-10
0.00516274
-2.52792e-10
0.00516274
-2.22531e-10
0.00516274
2.60686e-10
0.00516274
4.43104e-10
0.00516273
9.67676e-10
0.00516273
1.08896e-09
0.00516273
2.55638e-09
0.00516273
3.85743e-09
0.00516273
8.9322e-09
0.00516273
1.4886e-08
0.00516272
3.41245e-08
0.00516271
5.45322e-08
0.00516269
1.30865e-07
0.00516266
1.4075e-07
0.00516252
5.64684e-07
0.00516246
1.09861e-07
0.00516011
9.89985e-06
3.04645e-05
0.00519751
0.00246995
0.00519557
0.00016921
0.00519468
-2.70691e-05
0.00519075
6.53013e-05
0.00519074
-1.61824e-05
0.00518808
3.37683e-05
0.00518774
-3.5196e-06
0.0051863
1.60229e-05
0.00518592
3.17924e-07
0.00518518
7.41715e-06
0.00518493
7.38064e-07
0.00518458
3.22964e-06
0.00518445
4.24256e-07
0.0051843
1.31377e-06
0.00518424
1.68361e-07
0.00518418
5.04528e-07
0.00518416
5.08202e-08
0.00518414
1.87496e-07
0.00518413
1.02524e-08
0.00518412
6.54804e-08
0.00518412
2.46472e-09
0.00518412
2.19526e-08
0.00518412
-1.00917e-09
0.00518412
9.20134e-09
0.00518412
-2.50067e-09
0.00518412
1.95416e-09
0.00518412
-1.83073e-09
0.00518412
-1.90157e-09
0.00518412
-3.05641e-10
0.00518412
-2.52243e-10
0.00518412
1.29486e-10
0.00518412
1.57466e-09
0.00518412
2.68512e-10
0.00518412
-2.35514e-10
0.00518412
-9.74133e-11
0.00518412
-2.19828e-09
0.00518412
1.473e-09
0.00518412
1.08295e-09
0.00518412
8.65338e-10
0.00518412
2.77406e-09
0.00518412
2.85489e-09
0.00518412
1.2515e-09
0.00518412
2.00631e-09
0.00518412
5.4406e-11
0.00518412
6.69412e-10
0.00518412
1.10346e-09
0.00518412
1.08684e-09
0.00518412
1.95127e-10
0.00518412
1.87559e-09
0.00518412
-2.23719e-10
0.00518412
-3.83421e-10
0.00518412
-1.18254e-09
0.00518412
-1.66135e-09
0.00518412
-1.50921e-09
0.00518412
-2.80251e-10
0.00518412
-1.26401e-09
0.00518412
5.88114e-10
0.00518412
1.09319e-11
0.00518412
-1.70578e-10
0.00518412
-5.10314e-10
0.00518412
-5.82476e-10
0.00518412
-1.45733e-09
0.00518412
-5.26495e-10
0.00518412
-9.89859e-10
0.00518412
1.48589e-10
0.00518412
7.72285e-10
0.00518412
1.2922e-09
0.00518412
1.097e-09
0.00518412
1.58059e-09
0.00518412
3.00788e-10
0.00518411
5.94593e-10
0.00518411
-3.90697e-10
0.00518411
-2.11017e-10
0.00518411
-7.79051e-10
0.00518411
-7.92733e-11
0.00518411
-2.79931e-10
0.00518411
2.15394e-10
0.00518411
1.92276e-10
0.00518411
1.94192e-10
0.00518411
-6.75623e-10
0.00518411
-1.2856e-10
0.00518411
-7.70971e-10
0.00518411
-3.10139e-10
0.00518411
-2.83022e-10
0.00518411
2.82178e-10
0.00518411
5.29168e-10
0.00518411
1.15509e-09
0.00518411
1.33075e-09
0.00518411
3.06444e-09
0.00518411
4.57122e-09
0.00518411
1.03791e-08
0.00518411
1.73596e-08
0.0051841
3.93837e-08
0.00518409
6.26934e-08
0.00518407
1.52139e-07
0.00518405
1.61853e-07
0.00518392
6.95664e-07
0.00518386
1.6564e-07
0.00518184
1.19197e-05
3.66295e-05
0.00519751
0.00227244
0.00519931
0.000167418
0.0051983
-2.60633e-05
0.00519631
6.72912e-05
0.00519598
-1.58553e-05
0.00519433
3.54217e-05
0.00519394
-3.1304e-06
0.00519298
1.69855e-05
0.00519263
6.69728e-07
0.00519211
7.93905e-06
0.00519188
9.63431e-07
0.00519162
3.48579e-06
0.00519151
5.39477e-07
0.00519139
1.42719e-06
0.00519134
2.18747e-07
0.0051913
5.50453e-07
0.00519128
7.04871e-08
0.00519126
2.05011e-07
0.00519125
1.73793e-08
0.00519125
7.1362e-08
0.00519125
5.10317e-09
0.00519124
2.4117e-08
0.00519124
-4.58945e-10
0.00519124
1.01905e-08
0.00519124
-2.30198e-09
0.00519124
1.91935e-09
0.00519124
-1.80058e-09
0.00519124
-2.31707e-09
0.00519124
-2.11808e-10
0.00519124
-1.10706e-10
0.00519124
-3.52431e-11
0.00519124
1.79603e-09
0.00519124
2.72698e-10
0.00519124
-4.17758e-10
0.00519124
3.68887e-11
0.00519124
-2.63915e-09
0.00519124
1.4798e-09
0.00519124
1.4098e-09
0.00519124
9.67234e-10
0.00519124
3.08683e-09
0.00519124
3.33245e-09
0.00519124
1.40177e-09
0.00519124
2.25325e-09
0.00519124
1.82736e-10
0.00519124
7.64968e-10
0.00519124
1.24855e-09
0.00519124
1.50065e-09
0.00519124
2.45116e-10
0.00519124
2.1153e-09
0.00519124
-1.44481e-10
0.00519124
-5.80916e-10
0.00519124
-1.40483e-09
0.00519124
-1.98676e-09
0.00519124
-1.8799e-09
0.00519124
-2.62797e-10
0.00519124
-1.45285e-09
0.00519124
6.71856e-10
0.00519124
7.3364e-11
0.00519124
-2.24249e-10
0.00519124
-6.26044e-10
0.00519124
-7.75029e-10
0.00519124
-1.79369e-09
0.00519124
-6.67387e-10
0.00519124
-1.18102e-09
0.00519124
2.14052e-10
0.00519124
9.1035e-10
0.00519124
1.63631e-09
0.00519124
1.39659e-09
0.00519124
1.8985e-09
0.00519124
4.35919e-10
0.00519124
6.63568e-10
0.00519124
-4.42423e-10
0.00519124
-3.07326e-10
0.00519124
-9.68166e-10
0.00519124
-1.28674e-10
0.00519124
-2.81534e-10
0.00519124
2.70063e-10
0.00519124
2.73779e-10
0.00519124
3.18572e-10
0.00519124
-7.09552e-10
0.00519124
-1.06945e-10
0.00519124
-8.87042e-10
0.00519124
-3.7544e-10
0.00519124
-3.41208e-10
0.00519124
2.94045e-10
0.00519124
5.89023e-10
0.00519124
1.32776e-09
0.00519124
1.53424e-09
0.00519124
3.49847e-09
0.00519124
5.15791e-09
0.00519124
1.15149e-08
0.00519123
1.9294e-08
0.00519123
4.34123e-08
0.00519122
6.887e-08
0.00519121
1.69128e-07
0.00519119
1.78048e-07
0.00519107
8.11329e-07
0.00519102
2.16701e-07
0.00518943
1.35176e-05
4.12886e-05
0.00519374
0.00207869
0.0051985
0.000162665
0.0051974
-2.49636e-05
0.0051971
6.75883e-05
0.00519653
-1.52814e-05
0.00519579
3.61544e-05
0.00519539
-2.72839e-06
0.00519488
1.75008e-05
0.00519457
9.73946e-07
0.00519426
8.25e-06
0.00519407
1.15131e-06
0.00519391
3.64912e-06
0.00519381
6.36135e-07
0.00519374
1.50309e-06
0.00519369
2.61905e-07
0.00519366
5.82256e-07
0.00519365
8.7683e-08
0.00519363
2.17405e-07
0.00519363
2.39345e-08
0.00519362
7.54058e-08
0.00519362
7.54109e-09
0.00519362
2.56941e-08
0.00519362
1.56345e-10
0.00519362
1.09228e-08
0.00519362
-2.05927e-09
0.00519362
1.80044e-09
0.00519362
-1.67212e-09
0.00519362
-2.68726e-09
0.00519362
-1.62115e-10
0.00519362
3.90052e-11
0.00519362
-2.05107e-10
0.00519362
1.96502e-09
0.00519362
2.73546e-10
0.00519362
-6.46062e-10
0.00519362
1.76508e-10
0.00519362
-3.00726e-09
0.00519362
1.41807e-09
0.00519362
1.71119e-09
0.00519362
1.08522e-09
0.00519362
3.34302e-09
0.00519362
3.77256e-09
0.00519362
1.55227e-09
0.00519362
2.4648e-09
0.00519362
3.3831e-10
0.00519362
9.06933e-10
0.00519362
1.35415e-09
0.00519362
1.91775e-09
0.00519362
3.05795e-10
0.00519362
2.28161e-09
0.00519362
-6.13437e-11
0.00519362
-8.02953e-10
0.00519362
-1.63611e-09
0.00519362
-2.27661e-09
0.00519362
-2.25814e-09
0.00519362
-2.34373e-10
0.00519362
-1.59432e-09
0.00519362
7.20935e-10
0.00519362
1.36507e-10
0.00519362
-2.86511e-10
0.00519362
-7.52702e-10
0.00519362
-9.84435e-10
0.00519362
-2.14459e-09
0.00519362
-8.09833e-10
0.00519362
-1.36077e-09
0.00519362
2.95791e-10
0.00519362
1.04684e-09
0.00519362
1.99141e-09
0.00519362
1.71348e-09
0.00519362
2.22093e-09
0.00519362
5.89509e-10
0.00519362
7.43572e-10
0.00519362
-4.69945e-10
0.00519362
-3.90917e-10
0.00519362
-1.14049e-09
0.00519362
-1.74938e-10
0.00519362
-2.62374e-10
0.00519362
3.28127e-10
0.00519362
3.48659e-10
0.00519362
4.47564e-10
0.00519361
-7.28819e-10
0.00519361
-8.81391e-11
0.00519361
-9.9208e-10
0.00519361
-4.50155e-10
0.00519361
-4.01158e-10
0.00519361
2.97954e-10
0.00519361
6.23286e-10
0.00519361
1.47971e-09
0.00519361
1.69747e-09
0.00519361
3.84877e-09
0.00519361
5.60439e-09
0.00519361
1.23245e-08
0.00519361
2.06523e-08
0.00519361
4.62114e-08
0.0051936
7.2928e-08
0.00519359
1.81604e-07
0.00519358
1.89193e-07
0.00519348
9.0641e-07
0.00519344
2.59919e-07
0.0051923
1.4662e-05
4.44616e-05
0.0051892
0.00188949
0.00519636
0.000155501
0.00519515
-2.37458e-05
0.00519633
6.64063e-05
0.00519556
-1.45093e-05
0.00519567
3.60448e-05
0.00519527
-2.33242e-06
0.00519518
1.75964e-05
0.00519493
1.21983e-06
0.00519482
8.3583e-06
0.00519468
1.29488e-06
0.00519461
3.72134e-06
0.00519453
7.10258e-07
0.00519449
1.54126e-06
0.00519446
2.95927e-07
0.00519444
5.99447e-07
0.00519443
1.01723e-07
0.00519442
2.24393e-07
0.00519441
2.94643e-08
0.00519441
7.76562e-08
0.00519441
9.59362e-09
0.00519441
2.66354e-08
0.00519441
7.75315e-10
0.00519441
1.1382e-08
0.00519441
-1.77974e-09
0.00519441
1.60285e-09
0.00519441
-1.47423e-09
0.00519441
-3.00235e-09
0.00519441
-1.64452e-10
0.00519441
1.84107e-10
0.00519441
-3.7022e-10
0.00519441
2.06891e-09
0.00519441
2.72075e-10
0.00519441
-9.08494e-10
0.00519441
3.16224e-10
0.00519441
-3.29217e-09
0.00519441
1.29301e-09
0.00519441
1.97743e-09
0.00519441
1.2275e-09
0.00519441
3.54121e-09
0.00519441
4.16221e-09
0.00519441
1.70207e-09
0.00519441
2.64633e-09
0.00519441
5.09622e-10
0.00519441
1.08775e-09
0.00519441
1.42689e-09
0.00519441
2.32462e-09
0.00519441
3.8419e-10
0.00519441
2.38216e-09
0.00519441
2.25533e-11
0.00519441
-1.03295e-09
0.00519441
-1.87855e-09
0.00519441
-2.518e-09
0.00519441
-2.63394e-09
0.00519441
-2.04535e-10
0.00519441
-1.6865e-09
0.00519441
7.40207e-10
0.00519441
1.9636e-10
0.00519441
-3.54883e-10
0.00519441
-8.90704e-10
0.00519441
-1.2013e-09
0.00519441
-2.49915e-09
0.00519441
-9.53206e-10
0.00519441
-1.52662e-09
0.00519441
3.8855e-10
0.00519441
1.18001e-09
0.00519441
2.3469e-09
0.00519441
2.03935e-09
0.00519441
2.54129e-09
0.00519441
7.51542e-10
0.00519441
8.28863e-10
0.00519441
-4.81524e-10
0.00519441
-4.59172e-10
0.00519441
-1.29801e-09
0.00519441
-2.19612e-10
0.00519441
-2.29736e-10
0.00519441
3.88359e-10
0.00519441
4.12114e-10
0.00519441
5.73526e-10
0.00519441
-7.38603e-10
0.00519441
-7.83746e-11
0.00519441
-1.08641e-09
0.00519441
-5.34503e-10
0.00519441
-4.65689e-10
0.00519441
2.93877e-10
0.00519441
6.33299e-10
0.00519441
1.60615e-09
0.00519441
1.81911e-09
0.00519441
4.10629e-09
0.00519441
5.9002e-09
0.0051944
1.28002e-08
0.0051944
2.14279e-08
0.0051944
4.77141e-08
0.0051944
7.50021e-08
0.00519439
1.89311e-07
0.00519439
1.95324e-07
0.00519432
9.76485e-07
0.00519428
2.93461e-07
0.0051936
1.53474e-05
4.62031e-05
0.00518482
0.00170467
0.00519398
0.000146347
0.00519261
-2.23807e-05
0.00519508
6.39376e-05
0.00519415
-1.35757e-05
0.00519502
3.51682e-05
0.00519465
-1.95548e-06
0.00519494
1.73002e-05
0.00519476
1.40097e-06
0.00519485
8.27327e-06
0.00519475
1.39017e-06
0.00519477
3.705e-06
0.00519472
7.59384e-07
0.00519472
1.54215e-06
0.00519469
3.19471e-07
0.00519469
6.01908e-07
0.00519468
1.12039e-07
0.00519468
2.2579e-07
0.00519468
3.37642e-08
0.00519468
7.80276e-08
0.00519467
1.11653e-08
0.00519467
2.69586e-08
0.00519467
1.31302e-09
0.00519467
1.15511e-08
0.00519467
-1.46693e-09
0.00519467
1.33728e-09
0.00519467
-1.23994e-09
0.00519467
-3.2595e-09
0.00519467
-2.17633e-10
0.00519467
3.1773e-10
0.00519467
-5.21916e-10
0.00519467
2.09278e-09
0.00519467
2.69429e-10
0.00519467
-1.19038e-09
0.00519467
4.45943e-10
0.00519467
-3.4862e-09
0.00519467
1.11324e-09
0.00519467
2.20077e-09
0.00519467
1.4017e-09
0.00519467
3.68576e-09
0.00519467
4.49576e-09
0.00519467
1.85134e-09
0.00519467
2.80583e-09
0.00519467
6.90524e-10
0.00519467
1.29656e-09
0.00519467
1.47835e-09
0.00519467
2.71092e-09
0.00519467
4.85453e-10
0.00519467
2.42769e-09
0.00519467
1.0164e-10
0.00519467
-1.25436e-09
0.00519467
-2.1364e-09
0.00519467
-2.70667e-09
0.00519467
-2.9954e-09
0.00519467
-1.8235e-10
0.00519467
-1.73173e-09
0.00519467
7.36441e-10
0.00519467
2.4901e-10
0.00519467
-4.24828e-10
0.00519467
-1.04293e-09
0.00519467
-1.41761e-09
0.00519467
-2.84495e-09
0.00519467
-1.09757e-09
0.00519467
-1.67611e-09
0.00519467
4.8612e-10
0.00519467
1.31138e-09
0.00519467
2.69475e-09
0.00519467
2.36561e-09
0.00519467
2.85449e-09
0.00519467
9.14285e-10
0.00519467
9.16055e-10
0.00519467
-4.84375e-10
0.00519467
-5.09511e-10
0.00519467
-1.4398e-09
0.00519467
-2.62656e-10
0.00519467
-1.90378e-10
0.00519467
4.52042e-10
0.00519467
4.61804e-10
0.00519467
6.91014e-10
0.00519467
-7.43328e-10
0.00519467
-8.14749e-11
0.00519467
-1.17014e-09
0.00519467
-6.28305e-10
0.00519467
-5.35621e-10
0.00519467
2.8189e-10
0.00519467
6.23973e-10
0.00519467
1.705e-09
0.00519467
1.90083e-09
0.00519467
4.26788e-09
0.00519467
6.04231e-09
0.00519467
1.2928e-08
0.00519467
2.16178e-08
0.00519467
4.79926e-08
0.00519467
7.51537e-08
0.00519467
1.92107e-07
0.00519466
1.96515e-07
0.00519462
1.01842e-06
0.0051946
3.16332e-07
0.00519436
1.55823e-05
4.65901e-05
0.00518088
0.0015238
0.00519168
0.000135543
0.00519015
-2.08464e-05
0.00519373
6.03567e-05
0.00519266
-1.25102e-05
0.00519423
3.35989e-05
0.00519388
-1.60693e-06
0.00519454
1.66418e-05
0.00519443
1.51396e-06
0.0051947
8.00608e-06
0.00519465
1.4352e-06
0.00519475
3.60383e-06
0.00519473
7.82159e-07
0.00519476
1.50677e-06
0.00519475
3.31693e-07
0.00519476
5.89925e-07
0.00519476
1.18144e-07
0.00519476
2.21666e-07
0.00519476
3.66143e-08
0.00519476
7.6478e-08
0.00519476
1.22396e-08
0.00519476
2.66296e-08
0.00519476
1.74589e-09
0.00519476
1.14232e-08
0.00519476
-1.14164e-09
0.00519476
1.02154e-09
0.00519476
-9.90374e-10
0.00519476
-3.45316e-09
0.00519476
-3.19562e-10
0.00519476
4.31007e-10
0.00519476
-6.49037e-10
0.00519476
2.03009e-09
0.00519476
2.68298e-10
0.00519476
-1.481e-09
0.00519476
5.52214e-10
0.00519476
-3.58741e-09
0.00519476
8.92294e-10
0.00519476
2.37192e-09
0.00519476
1.60972e-09
0.00519476
3.77886e-09
0.00519476
4.76413e-09
0.00519476
1.99487e-09
0.00519476
2.9462e-09
0.00519476
8.73693e-10
0.00519476
1.52587e-09
0.00519476
1.51369e-09
0.00519476
3.07532e-09
0.00519476
6.07583e-10
0.00519476
2.4322e-09
0.00519476
1.70886e-10
0.00519476
-1.45118e-09
0.00519476
-2.40547e-09
0.00519476
-2.84622e-09
0.00519476
-3.33038e-09
0.00519476
-1.73435e-10
0.00519476
-1.73226e-09
0.00519476
7.13007e-10
0.00519476
2.92047e-10
0.00519476
-4.89904e-10
0.00519476
-1.21015e-09
0.00519476
-1.62969e-09
0.00519476
-3.17304e-09
0.00519476
-1.244e-09
0.00519476
-1.80552e-09
0.00519476
5.8223e-10
0.00519476
1.44306e-09
0.00519476
3.02324e-09
0.00519476
2.67871e-09
0.00519476
3.15828e-09
0.00519476
1.0686e-09
0.00519476
1.00473e-09
0.00519476
-4.84199e-10
0.00519476
-5.43814e-10
0.00519476
-1.56103e-09
0.00519476
-3.03918e-10
0.00519476
-1.471e-10
0.00519476
5.18182e-10
0.00519476
4.98041e-10
0.00519476
7.95634e-10
0.00519476
-7.4299e-10
0.00519476
-9.6183e-11
0.00519476
-1.24498e-09
0.00519476
-7.28975e-10
0.00519476
-6.11012e-10
0.00519476
2.64011e-10
0.00519476
5.99004e-10
0.00519476
1.77346e-09
0.00519476
1.94072e-09
0.00519476
4.33285e-09
0.00519476
6.02938e-09
0.00519476
1.27305e-08
0.00519476
2.12404e-08
0.00519476
4.70751e-08
0.00519476
7.34518e-08
0.00519476
1.90007e-07
0.00519477
1.9288e-07
0.00519475
1.03041e-06
0.00519474
3.2794e-07
0.00519494
1.53852e-05
4.57141e-05
0.00517742
0.00134638
0.00518959
0.000123376
0.00518787
-1.91309e-05
0.00519241
5.58213e-05
0.00519124
-1.13374e-05
0.00519342
3.14097e-05
0.00519311
-1.29298e-06
0.0051941
1.56524e-05
0.00519406
1.55799e-06
0.00519449
7.5697e-06
0.0051945
1.42981e-06
0.00519468
3.42277e-06
0.00519468
7.7823e-07
0.00519475
1.43681e-06
0.00519475
3.32254e-07
0.00519478
5.64054e-07
0.00519478
1.19753e-07
0.00519479
2.122e-07
0.00519479
3.78634e-08
0.00519479
7.30496e-08
0.00519479
1.27657e-08
0.00519479
2.56607e-08
0.00519479
2.05325e-09
0.00519479
1.09953e-08
0.00519479
-8.12746e-10
0.00519479
6.6726e-10
0.00519479
-7.48305e-10
0.00519479
-3.5852e-09
0.00519479
-4.62967e-10
0.00519479
5.14274e-10
0.00519479
-7.44628e-10
0.00519479
1.87525e-09
0.00519479
2.69237e-10
0.00519479
-1.76232e-09
0.00519479
6.23158e-10
0.00519479
-3.59062e-09
0.00519479
6.47411e-10
0.00519479
2.48688e-09
0.00519479
1.84569e-09
0.00519479
3.82472e-09
0.00519479
4.96802e-09
0.00519479
2.1293e-09
0.00519479
3.06846e-09
0.00519479
1.05549e-09
0.00519479
1.75969e-09
0.00519479
1.54208e-09
0.00519479
3.40627e-09
0.00519479
7.49347e-10
0.00519479
2.40668e-09
0.00519479
2.23227e-10
0.00519479
-1.60919e-09
0.00519479
-2.68691e-09
0.00519479
-2.9419e-09
0.00519479
-3.62767e-09
0.00519479
-1.83605e-10
0.00519479
-1.69166e-09
0.00519479
6.79162e-10
0.00519479
3.21539e-10
0.00519479
-5.43912e-10
0.00519479
-1.39074e-09
0.00519479
-1.83171e-09
0.00519479
-3.47296e-09
0.00519479
-1.38724e-09
0.00519479
-1.9138e-09
0.00519479
6.72847e-10
0.00519479
1.57758e-09
0.00519479
3.32955e-09
0.00519479
2.97354e-09
0.00519479
3.44731e-09
0.00519479
1.21037e-09
0.00519479
1.0894e-09
0.00519479
-4.85141e-10
0.00519479
-5.61876e-10
0.00519479
-1.66182e-09
0.00519479
-3.42097e-10
0.00519479
-1.04569e-10
0.00519479
5.85736e-10
0.00519479
5.22981e-10
0.00519479
8.85846e-10
0.00519479
-7.38779e-10
0.00519479
-1.19984e-10
0.00519479
-1.30838e-09
0.00519479
-8.31366e-10
0.00519479
-6.89988e-10
0.00519479
2.40128e-10
0.00519479
5.66632e-10
0.00519479
1.81214e-09
0.00519479
1.94276e-09
0.00519479
4.30348e-09
0.00519479
5.8667e-09
0.00519479
1.2222e-08
0.00519479
2.0321e-08
0.00519479
4.50105e-08
0.00519479
6.99995e-08
0.0051948
1.83118e-07
0.00519481
1.8462e-07
0.00519483
1.01182e-06
0.00519483
3.28055e-07
0.00519543
1.47818e-05
4.36771e-05
0.00517444
0.00117194
0.00518773
0.000110085
0.00518583
-1.72312e-05
0.00519118
5.04748e-05
0.00518992
-1.00776e-05
0.00519266
2.86724e-05
0.00519238
-1.01699e-06
0.00519367
1.43648e-05
0.00519369
1.53461e-06
0.00519428
6.97868e-06
0.00519434
1.37543e-06
0.00519459
3.16785e-06
0.00519462
7.48152e-07
0.00519472
1.33453e-06
0.00519474
3.21258e-07
0.00519477
5.25105e-07
0.00519478
1.16827e-07
0.00519479
1.97659e-07
0.00519479
3.74649e-08
0.0051948
6.78191e-08
0.0051948
1.27147e-08
0.0051948
2.40787e-08
0.0051948
2.22498e-09
0.0051948
1.02783e-08
0.0051948
-5.03391e-10
0.0051948
2.87343e-10
0.0051948
-5.23561e-10
0.0051948
-3.6548e-09
0.0051948
-6.37661e-10
0.0051948
5.56924e-10
0.0051948
-7.98964e-10
0.0051948
1.63265e-09
0.0051948
2.77459e-10
0.0051948
-2.01647e-09
0.0051948
6.45725e-10
0.0051948
-3.5019e-09
0.0051948
4.01671e-10
0.0051948
2.54402e-09
0.0051948
2.10708e-09
0.0051948
3.82708e-09
0.0051948
5.10745e-09
0.0051948
2.25e-09
0.0051948
3.17109e-09
0.0051948
1.23169e-09
0.0051948
1.99085e-09
0.0051948
1.56754e-09
0.0051948
3.69881e-09
0.0051948
9.05447e-10
0.0051948
2.36157e-09
0.0051948
2.51069e-10
0.0051948
-1.72114e-09
0.0051948
-2.97357e-09
0.0051948
-3.00388e-09
0.0051948
-3.87675e-09
0.0051948
-2.1639e-10
0.0051948
-1.61421e-09
0.0051948
6.39137e-10
0.0051948
3.32154e-10
0.0051948
-5.81518e-10
0.0051948
-1.57933e-09
0.0051948
-2.02183e-09
0.0051948
-3.74088e-09
0.0051948
-1.52499e-09
0.0051948
-1.99958e-09
0.0051948
7.54764e-10
0.0051948
1.71594e-09
0.0051948
3.60836e-09
0.0051948
3.24081e-09
0.0051948
3.7184e-09
0.0051948
1.33661e-09
0.0051948
1.17059e-09
0.0051948
-4.8859e-10
0.0051948
-5.66178e-10