/*--------------------------------*- C++ -*----------------------------------*\
| =========                 |                                                 |
| \\      /  F ield         | OpenFOAM: The Open Source CFD Toolbox           |
|  \\    /   O peration     | Version:  v1906                                 |
|   \\  /    A nd           | Web:      www.OpenFOAM.com                      |
|    \\/     M anipulation  |                                                 |
\*---------------------------------------------------------------------------*/
FoamFile
{
    version     2.0;
    format      ascii;
    class       surfaceScalarField;
    location    "1";
    object      phi;
}
// * * * * * * * * * * * * * * * * * * * * * * * * * * * * * * * * * * * * * //

dimensions      [0 3 -1 0 0 0 0];
oriented        oriented;


internalField   nonuniform List<scalar> 
7860
(
0.00223103
0.00276897
0.00192552
0.000305515
0.00189412
3.14028e-05
0.00188867
5.44376e-06
0.00189318
-4.50389e-06
0.00189367
-4.91465e-07
0.00189357
9.91046e-08
0.00189236
1.21332e-06
0.00189119
1.16729e-06
0.00189003
1.15787e-06
0.00188906
9.72758e-07
0.00188822
8.38966e-07
0.00188752
7.00314e-07
0.00188693
5.89715e-07
0.00188644
4.91989e-07
0.00188603
4.10431e-07
0.00188569
3.39213e-07
0.00188541
2.78158e-07
0.00188518
2.26798e-07
0.001885
1.84087e-07
0.00188485
1.4734e-07
0.00188474
1.16756e-07
0.00188465
9.15837e-08
0.00188457
7.18157e-08
0.00188452
5.56425e-08
0.00188448
4.24478e-08
0.00188444
3.18298e-08
0.00188442
2.39532e-08
0.0018844
1.75929e-08
0.00188439
1.31706e-08
0.00188438
9.56259e-09
0.00188437
7.17265e-09
0.00188437
5.0633e-09
0.00188436
3.62414e-09
0.00188436
2.26371e-09
0.00188436
1.99155e-09
0.00188436
1.80866e-09
0.00188436
1.07776e-09
0.00188436
3.87527e-10
0.00188436
5.97007e-10
0.00188436
5.45293e-10
0.00188436
2.64445e-10
0.00188436
-2.04254e-10
0.00188436
4.07848e-10
0.00188436
4.01735e-10
0.00188436
-1.38166e-10
0.00188436
-5.57712e-10
0.00188436
-1.05199e-12
0.00188436
6.84796e-11
0.00188436
2.41697e-10
0.00188436
-2.33496e-10
0.00188436
-1.44487e-10
0.00188436
-1.87105e-10
0.00188436
1.68152e-10
0.00188436
3.78468e-10
0.00188436
4.73257e-10
0.00188436
1.65241e-10
0.00188436
1.41743e-10
0.00188436
-1.06098e-10
0.00188436
2.57161e-10
0.00188436
-4.92136e-11
0.00188436
-1.50957e-10
0.00188436
-1.61971e-10
0.00188436
8.45966e-12
0.00188436
-2.1396e-10
0.00188436
-5.08015e-11
0.00188436
-1.51507e-10
0.00188436
-2.54931e-10
0.00188436
-2.88643e-10
0.00188436
-7.5623e-11
0.00188436
-4.10199e-11
0.00188436
7.5706e-11
0.00188436
-1.0036e-10
0.00188436
1.12934e-10
0.00188436
1.74914e-10
0.00188436
4.52703e-10
0.00188436
9.68993e-11
0.00188436
4.48226e-11
0.00188436
1.91718e-11
0.00188436
3.09851e-10
0.00188436
4.10168e-10
0.00188436
5.15508e-10
0.00188435
6.90578e-10
0.00188435
1.2043e-09
0.00188435
1.68178e-09
0.00188435
2.86145e-09
0.00188434
4.0235e-09
0.00188434
5.72235e-09
0.00188433
8.27683e-09
0.00188432
1.214e-08
0.0018843
1.68195e-08
0.00188428
2.14535e-08
0.00188426
2.49839e-08
0.00188423
2.2723e-08
0.00188422
1.43368e-08
0.00188418
3.3642e-08
0.00188397
2.09855e-07
0.001883
9.69779e-07
0.00188093
2.0786e-06
-2.26918e-06
0.00411178
0.00365718
0.00377966
0.000637633
0.00370343
0.000107635
0.00369352
1.53546e-05
0.00369882
-9.80176e-06
0.00370028
-1.95359e-06
0.00370007
3.15302e-07
0.00369821
3.07047e-06
0.00369622
3.15378e-06
0.00369427
3.11329e-06
0.00369259
2.65623e-06
0.00369113
2.29102e-06
0.00368991
1.92573e-06
0.00368888
1.62457e-06
0.00368801
1.35888e-06
0.00368728
1.13618e-06
0.00368668
9.43165e-07
0.00368618
7.76214e-07
0.00368578
6.34158e-07
0.00368545
5.15288e-07
0.00368518
4.14009e-07
0.00368497
3.29537e-07
0.0036848
2.59499e-07
0.00368467
2.03738e-07
0.00368457
1.57953e-07
0.00368449
1.20343e-07
0.00368443
9.08959e-08
0.00368439
6.91084e-08
0.00368435
5.11367e-08
0.00368433
3.7751e-08
0.00368431
2.74363e-08
0.0036843
2.0149e-08
0.00368429
1.43991e-08
0.00368428
1.06175e-08
0.00368428
7.74035e-09
0.00368427
5.87947e-09
0.00368427
3.92198e-09
0.00368427
2.91325e-09
0.00368427
2.32356e-09
0.00368426
1.97929e-09
0.00368426
1.22363e-09
0.00368426
9.11196e-10
0.00368426
4.81966e-11
0.00368426
3.06767e-10
0.00368426
2.99596e-10
0.00368426
1.84319e-10
0.00368426
-2.78843e-10
0.00368426
1.91005e-11
0.00368426
-5.44797e-10
0.00368426
-1.60441e-10
0.00368426
-3.07144e-10
0.00368426
2.27132e-10
0.00368426
2.40306e-10
0.00368426
3.34998e-10
0.00368426
5.29146e-10
0.00368426
9.29843e-10
0.00368426
6.73526e-10
0.00368426
7.02625e-10
0.00368426
1.86069e-10
0.00368426
5.55109e-10
0.00368426
-8.15245e-11
0.00368426
-3.41016e-10
0.00368426
-5.44013e-10
0.00368426
-2.50353e-10
0.00368426
-6.89639e-10
0.00368426
-3.73209e-10
0.00368426
-2.37577e-10
0.00368426
-2.30948e-10
0.00368426
-5.15989e-10
0.00368426
-3.63897e-10
0.00368426
-2.21468e-10
0.00368426
2.72782e-10
0.00368426
1.42023e-10
0.00368426
4.0334e-10
0.00368426
3.11821e-10
0.00368426
7.35558e-10
0.00368426
4.70638e-10
0.00368426
5.22723e-10
0.00368426
1.31801e-10
0.00368426
4.52788e-10
0.00368426
1.01268e-09
0.00368426
1.75363e-09
0.00368426
2.41903e-09
0.00368426
3.50737e-09
0.00368425
4.66963e-09
0.00368425
7.52568e-09
0.00368424
1.1312e-08
0.00368423
1.65232e-08
0.00368422
2.3666e-08
0.00368419
3.38099e-08
0.00368416
4.68818e-08
0.00368412
6.03143e-08
0.00368408
7.18603e-08
0.00368403
7.05593e-08
0.00368398
6.88626e-08
0.00368385
1.59205e-07
0.00368327
7.87597e-07
0.00368129
2.95613e-06
0.00367648
6.88211e-06
3.66649e-06
0.00489027
0.00376691
0.00465393
0.000873979
0.00456571
0.000195852
0.0045555
2.55593e-05
0.00455918
-1.3472e-05
0.00456114
-3.91408e-06
0.00456084
6.10805e-07
0.00455902
4.89063e-06
0.0045569
5.26695e-06
0.00455484
5.17849e-06
0.00455302
4.46949e-06
0.00455146
3.8553e-06
0.00455013
3.25291e-06
0.004549
2.74873e-06
0.00454806
2.30628e-06
0.00454726
1.93101e-06
0.0045466
1.60548e-06
0.00454605
1.32534e-06
0.0045456
1.08643e-06
0.00454523
8.83583e-07
0.00454493
7.10451e-07
0.00454469
5.68342e-07
0.0045445
4.49769e-07
0.00454435
3.52359e-07
0.00454424
2.73149e-07
0.00454415
2.09332e-07
0.00454408
1.59183e-07
0.00454403
1.20955e-07
0.00454399
8.907e-08
0.00454396
6.57615e-08
0.00454394
4.83859e-08
0.00454392
3.53426e-08
0.00454391
2.58716e-08
0.0045439
1.89878e-08
0.0045439
1.3317e-08
0.00454389
1.01411e-08
0.00454389
7.07439e-09
0.00454389
5.33988e-09
0.00454389
4.15392e-09
0.00454389
3.13142e-09
0.00454388
1.80692e-09
0.00454388
1.6616e-09
0.00454388
7.13506e-10
0.00454388
6.99286e-10
0.00454388
4.93172e-10
0.00454388
1.69981e-10
0.00454388
-6.61387e-10
0.00454388
-1.717e-10
0.00454388
-7.70009e-10
0.00454388
-4.8867e-10
0.00454389
-8.88283e-10
0.00454389
-7.84677e-11
0.00454389
3.10068e-10
0.00454389
3.44022e-10
0.00454389
7.24464e-10
0.00454388
1.62827e-09
0.00454388
1.25278e-09
0.00454388
1.23888e-09
0.00454388
6.23238e-10
0.00454388
8.80372e-10
0.00454388
-1.64813e-10
0.00454388
-4.44096e-10
0.00454388
-8.29442e-10
0.00454388
-2.69249e-10
0.00454388
-6.76054e-10
0.00454388
-3.89157e-10
0.00454388
-4.36741e-10
0.00454388
-3.98435e-10
0.00454388
-6.20834e-10
0.00454389
-3.09057e-10
0.00454389
-3.66256e-10
0.00454389
2.06175e-10
0.00454389
4.1333e-10
0.00454388
1.00529e-09
0.00454388
7.77326e-10
0.00454388
1.07308e-09
0.00454388
5.61851e-10
0.00454388
7.49654e-10
0.00454388
5.76168e-10
0.00454388
1.08473e-09
0.00454388
1.68265e-09
0.00454388
2.87891e-09
0.00454388
4.18441e-09
0.00454388
6.20185e-09
0.00454387
8.53714e-09
0.00454387
1.31553e-08
0.00454386
1.96286e-08
0.00454385
2.86599e-08
0.00454383
4.09853e-08
0.00454381
5.80531e-08
0.00454377
8.04025e-08
0.00454373
1.0423e-07
0.00454367
1.27166e-07
0.00454361
1.33235e-07
0.00454352
1.61444e-07
0.00454331
3.66367e-07
0.00454247
1.63239e-06
0.00453992
5.50445e-06
0.00453279
1.40143e-05
1.68888e-05
0.00520778
0.00355913
0.00505311
0.00102864
0.00497565
0.000273316
0.00496617
3.50399e-05
0.00496841
-1.57131e-05
0.00497038
-5.88084e-06
0.00497011
8.81426e-07
0.00496853
6.47026e-06
0.0049666
7.19166e-06
0.00496472
7.06444e-06
0.00496304
6.14249e-06
0.00496159
5.30408e-06
0.00496036
4.4869e-06
0.00495931
3.79805e-06
0.00495842
3.19391e-06
0.00495767
2.68019e-06
0.00495705
2.23252e-06
0.00495653
1.84658e-06
0.0049561
1.51695e-06
0.00495574
1.23713e-06
0.00495546
9.97288e-07
0.00495522
7.99317e-07
0.00495504
6.341e-07
0.0049549
4.97246e-07
0.00495478
3.86487e-07
0.00495469
2.97704e-07
0.00495463
2.26612e-07
0.00495458
1.71983e-07
0.00495454
1.27129e-07
0.00495451
9.39749e-08
0.00495449
6.95374e-08
0.00495447
5.07568e-08
0.00495446
3.70805e-08
0.00495445
2.74191e-08
0.00495445
1.91768e-08
0.00495444
1.46851e-08
0.00495444
1.05729e-08
0.00495444
7.74386e-09
0.00495444
5.75523e-09
0.00495443
4.54197e-09
0.00495443
2.89344e-09
0.00495443
2.53322e-09
0.00495443
1.32893e-09
0.00495443
1.03472e-09
0.00495443
7.43917e-10
0.00495443
3.42404e-10
0.00495443
-1.07075e-09
0.00495443
-5.53438e-10
0.00495443
-1.03997e-09
0.00495443
-6.10195e-10
0.00495443
-1.28675e-09
0.00495443
-4.20706e-10
0.00495443
3.29659e-10
0.00495443
5.69961e-10
0.00495443
1.06008e-09
0.00495443
2.41666e-09
0.00495443
2.05513e-09
0.00495443
1.90068e-09
0.00495443
9.69136e-10
0.00495443
1.21277e-09
0.00495443
-1.72667e-10
0.00495443
-5.74167e-10
0.00495443
-1.21805e-09
0.00495443
-4.69333e-10
0.00495443
-7.90506e-10
0.00495443
-4.53662e-10
0.00495443
-6.32942e-10
0.00495443
-6.43078e-10
0.00495443
-9.31019e-10
0.00495443
-4.70462e-10
0.00495443
-5.10021e-10
0.00495443
2.18677e-10
0.00495443
5.58377e-10
0.00495443
1.39023e-09
0.00495443
1.13197e-09
0.00495443
1.44187e-09
0.00495443
7.71899e-10
0.00495443
9.91403e-10
0.00495443
9.20252e-10
0.00495443
1.75845e-09
0.00495443
2.50451e-09
0.00495443
4.00665e-09
0.00495443
5.87049e-09
0.00495442
8.8107e-09
0.00495442
1.23395e-08
0.00495442
1.86517e-08
0.00495441
2.75864e-08
0.0049544
4.02164e-08
0.00495438
5.74457e-08
0.00495436
8.11532e-08
0.00495432
1.12579e-07
0.00495428
1.47022e-07
0.00495423
1.83698e-07
0.00495415
2.04225e-07
0.00495403
2.82504e-07
0.00495377
6.33083e-07
0.00495279
2.61354e-06
0.00495
8.29374e-06
0.00494144
2.25719e-05
3.30099e-05
0.0053203
0.00323884
0.00522988
0.00111906
0.00516916
0.00033403
0.00516106
4.31404e-05
0.00516225
-1.69042e-05
0.00516403
-7.65722e-06
0.00516383
1.07851e-06
0.00516257
7.73443e-06
0.00516096
8.79687e-06
0.00515938
8.64465e-06
0.00515797
7.55751e-06
0.00515674
6.53408e-06
0.00515569
5.54139e-06
0.00515479
4.69805e-06
0.00515402
3.95822e-06
0.00515338
3.32657e-06
0.00515283
2.77762e-06
0.00515238
2.30205e-06
0.005152
1.89458e-06
0.00515169
1.54905e-06
0.00515143
1.25239e-06
0.00515123
1.00505e-06
0.00515106
7.98526e-07
0.00515093
6.2773e-07
0.00515083
4.89221e-07
0.00515075
3.78202e-07
0.00515069
2.88007e-07
0.00515064
2.18415e-07
0.00515061
1.62311e-07
0.00515058
1.2029e-07
0.00515056
8.89924e-08
0.00515055
6.49838e-08
0.00515054
4.73592e-08
0.00515053
3.52742e-08
0.00515052
2.4906e-08
0.00515052
1.90559e-08
0.00515051
1.38615e-08
0.00515051
1.00563e-08
0.00515051
7.31091e-09
0.00515051
5.97641e-09
0.00515051
4.11585e-09
0.00515051
3.42951e-09
0.00515051
1.944e-09
0.00515051
1.37663e-09
0.00515051
8.92757e-10
0.00515051
5.49271e-10
0.00515051
-1.33021e-09
0.00515051
-9.78237e-10
0.00515051
-1.47186e-09
0.00515051
-7.79016e-10
0.00515051
-1.53136e-09
0.00515051
-6.82916e-10
0.00515051
2.75768e-10
0.00515051
7.76182e-10
0.00515051
1.42524e-09
0.00515051
3.14072e-09
0.00515051
2.79765e-09
0.00515051
2.61597e-09
0.00515051
1.34086e-09
0.00515051
1.46117e-09
0.00515051
-2.27517e-10
0.00515051
-6.96958e-10
0.00515051
-1.59563e-09
0.00515051
-7.26815e-10
0.00515051
-9.53017e-10
0.00515051
-5.36169e-10
0.00515051
-7.73791e-10
0.00515051
-8.02448e-10
0.00515051
-1.23165e-09
0.00515051
-7.0924e-10
0.00515051
-6.75951e-10
0.00515051
2.91856e-10
0.00515051
6.92445e-10
0.00515051
1.64644e-09
0.00515051
1.37416e-09
0.00515051
1.77782e-09
0.00515051
1.03687e-09
0.00515051
1.30404e-09
0.00515051
1.23939e-09
0.00515051
2.32059e-09
0.00515051
3.30556e-09
0.0051505
5.12357e-09
0.0051505
7.40771e-09
0.0051505
1.11387e-08
0.0051505
1.57217e-08
0.00515049
2.35522e-08
0.00515048
3.46298e-08
0.00515047
5.04062e-08
0.00515046
7.19598e-08
0.00515044
1.01506e-07
0.00515041
1.41133e-07
0.00515037
1.85829e-07
0.00515032
2.37682e-07
0.00515024
2.78453e-07
0.00515011
4.20586e-07
0.00514981
9.32227e-07
0.00514879
3.62616e-06
0.00514604
1.10519e-05
0.00513723
3.13821e-05
4.89619e-05
0.0053437
0.00289514
0.00530269
0.00116007
0.00525929
0.000377431
0.00525282
4.96079e-05
0.0052533
-1.73797e-05
0.00525482
-9.17589e-06
0.00525471
1.18997e-06
0.00525378
8.66283e-06
0.00525254
1.00361e-05
0.00525131
9.87256e-06
0.0052502
8.6695e-06
0.00524923
7.50542e-06
0.00524839
6.3802e-06
0.00524767
5.41795e-06
0.00524705
4.57243e-06
0.00524653
3.84869e-06
0.00524609
3.22039e-06
0.00524572
2.67449e-06
0.00524541
2.2052e-06
0.00524515
1.80685e-06
0.00524494
1.46416e-06
0.00524477
1.17654e-06
0.00524463
9.36488e-07
0.00524452
7.38061e-07
0.00524443
5.76498e-07
0.00524436
4.46763e-07
0.00524431
3.40474e-07
0.00524427
2.58352e-07
0.00524424
1.92879e-07
0.00524421
1.43186e-07
0.0052442
1.05777e-07
0.00524419
7.73528e-08
0.00524418
5.63754e-08
0.00524417
4.21208e-08
0.00524416
3.00523e-08
0.00524416
2.28343e-08
0.00524416
1.6631e-08
0.00524416
1.20937e-08
0.00524415
8.93001e-09
0.00524415
7.34648e-09
0.00524415
5.20988e-09
0.00524415
4.20857e-09
0.00524415
2.65505e-09
0.00524415
1.78833e-09
0.00524415
9.37581e-10
0.00524415
6.50454e-10
0.00524415
-1.49566e-09
0.00524415
-1.52196e-09
0.00524415
-2.11024e-09
0.00524415
-1.11984e-09
0.00524415
-1.7223e-09
0.00524415
-9.65499e-10
0.00524415
1.74283e-10
0.00524415
9.11377e-10
0.00524415
1.76708e-09
0.00524415
3.74049e-09
0.00524415
3.47119e-09
0.00524415
3.28308e-09
0.00524415
1.77993e-09
0.00524415
1.697e-09
0.00524415
-2.12226e-10
0.00524415
-7.42818e-10
0.00524415
-1.81625e-09
0.00524415
-9.38723e-10
0.00524415
-1.03043e-09
0.00524415
-5.88718e-10
0.00524415
-8.45839e-10
0.00524415
-8.9401e-10
0.00524415
-1.4184e-09
0.00524415
-9.02756e-10
0.00524415
-7.84772e-10
0.00524415
3.36035e-10
0.00524415
8.03521e-10
0.00524415
1.85355e-09
0.00524415
1.62235e-09
0.00524415
2.06416e-09
0.00524415
1.30422e-09
0.00524415
1.585e-09
0.00524415
1.53528e-09
0.00524415
2.77298e-09
0.00524415
4.05276e-09
0.00524415
6.16365e-09
0.00524415
8.78535e-09
0.00524414
1.31443e-08
0.00524414
1.86213e-08
0.00524414
2.76739e-08
0.00524413
4.05032e-08
0.00524412
5.88423e-08
0.00524411
8.40043e-08
0.0052441
1.1839e-07
0.00524407
1.65052e-07
0.00524404
2.19162e-07
0.00524399
2.86641e-07
0.00524392
3.51428e-07
0.00524377
5.64735e-07
0.00524347
1.23273e-06
0.0052425
4.602e-06
0.00523999
1.356e-05
0.00523185
3.9515e-05
6.31066e-05
0.00533099
0.00256414
0.00532746
0.0011636
0.0053001
0.000404783
0.00529534
5.43725e-05
0.00529534
-1.73762e-05
0.00529658
-1.04154e-05
0.00529655
1.22009e-06
0.00529595
9.26222e-06
0.00529508
1.09038e-05
0.00529421
1.07412e-05
0.00529341
9.46841e-06
0.00529271
8.20852e-06
0.00529209
6.99312e-06
0.00529156
5.94834e-06
0.00529111
5.02813e-06
0.00529072
4.23854e-06
0.00529038
3.55332e-06
0.0052901
2.95686e-06
0.00528986
2.44277e-06
0.00528966
2.00505e-06
0.0052895
1.62796e-06
0.00528937
1.31037e-06
0.00528926
1.04495e-06
0.00528917
8.25286e-07
0.0052891
6.45778e-07
0.00528905
5.00827e-07
0.005289
3.82612e-07
0.00528897
2.90728e-07
0.00528895
2.17714e-07
0.00528893
1.61696e-07
0.00528891
1.19389e-07
0.0052889
8.74889e-08
0.0052889
6.38938e-08
0.00528889
4.7769e-08
0.00528889
3.42488e-08
0.00528888
2.58215e-08
0.00528888
1.88844e-08
0.00528888
1.38577e-08
0.00528888
1.03766e-08
0.00528888
8.45326e-09
0.00528888
6.11056e-09
0.00528887
4.91554e-09
0.00528887
3.42689e-09
0.00528887
2.29246e-09
0.00528887
9.43001e-10
0.00528887
6.03166e-10
0.00528887
-1.61825e-09
0.00528887
-2.01651e-09
0.00528888
-2.78353e-09
0.00528888
-1.60978e-09
0.00528888
-1.97e-09
0.00528888
-1.28437e-09
0.00528888
-9.38673e-12
0.00528888
8.9678e-10
0.00528888
1.96313e-09
0.00528888
4.18985e-09
0.00528888
4.03097e-09
0.00528887
3.82968e-09
0.00528887
2.23705e-09
0.00528887
1.92731e-09
0.00528887
-2.16524e-10
0.00528887
-7.19798e-10
0.00528888
-1.79764e-09
0.00528888
-1.00147e-09
0.00528888
-1.00556e-09
0.00528888
-5.64433e-10
0.00528888
-8.28952e-10
0.00528888
-9.07458e-10
0.00528888
-1.504e-09
0.00528888
-1.0358e-09
0.00528888
-8.91847e-10
0.00528888
2.86552e-10
0.00528888
8.89465e-10
0.00528888
2.05574e-09
0.00528888
1.86502e-09
0.00528888
2.29803e-09
0.00528887
1.53825e-09
0.00528887
1.81825e-09
0.00528887
1.8318e-09
0.00528887
3.15592e-09
0.00528887
4.66221e-09
0.00528887
7.0229e-09
0.00528887
9.92636e-09
0.00528887
1.47623e-08
0.00528887
2.09503e-08
0.00528886
3.09216e-08
0.00528886
4.50927e-08
0.00528885
6.53748e-08
0.00528884
9.33388e-08
0.00528883
1.31461e-07
0.00528881
1.83835e-07
0.00528879
2.46173e-07
0.00528874
3.28816e-07
0.00528868
4.18674e-07
0.00528854
7.03536e-07
0.00528825
1.5176e-06
0.00528738
5.47255e-06
0.00528527
1.56743e-05
0.00527841
4.63752e-05
7.46427e-05
0.0053058
0.00225834
0.00533065
0.00113875
0.0053175
0.000417942
0.00531441
5.74546e-05
0.00531408
-1.70432e-05
0.00531503
-1.13603e-05
0.00531507
1.17506e-06
0.00531477
9.55783e-06
0.00531426
1.1415e-05
0.00531374
1.12633e-05
0.00531325
9.96228e-06
0.00531281
8.64936e-06
0.00531241
7.38379e-06
0.00531207
6.29107e-06
0.00531177
5.3261e-06
0.00531152
4.49608e-06
0.00531129
3.77592e-06
0.0053111
3.14806e-06
0.00531094
2.60562e-06
0.0053108
2.14219e-06
0.00531069
1.74232e-06
0.00531059
1.40502e-06
0.00531052
1.12249e-06
0.00531045
8.87943e-07
0.0053104
6.95754e-07
0.00531036
5.40254e-07
0.00531033
4.13705e-07
0.00531031
3.14868e-07
0.00531029
2.3601e-07
0.00531027
1.75351e-07
0.00531026
1.29552e-07
0.00531026
9.5192e-08
0.00531025
6.95557e-08
0.00531025
5.20498e-08
0.00531024
3.7457e-08
0.00531024
2.80756e-08
0.00531024
2.05262e-08
0.00531024
1.52785e-08
0.00531024
1.15938e-08
0.00531024
9.35942e-09
0.00531023
6.86683e-09
0.00531023
5.59094e-09
0.00531023
4.18009e-09
0.00531023
2.8032e-09
0.00531023
8.95558e-10
0.00531023
4.83432e-10
0.00531023
-1.70886e-09
0.00531023
-2.40365e-09
0.00531023
-3.40874e-09
0.00531024
-2.11911e-09
0.00531024
-2.25135e-09
0.00531024
-1.59325e-09
0.00531024
-2.56213e-10
0.00531024
8.34439e-10
0.00531024
2.04757e-09
0.00531024
4.54089e-09
0.00531024
4.5022e-09
0.00531023
4.28664e-09
0.00531023
2.60024e-09
0.00531023
2.13625e-09
0.00531023
-2.54038e-10
0.00531023
-6.72444e-10
0.00531023
-1.65634e-09
0.00531023
-9.56689e-10
0.00531023
-9.69812e-10
0.00531023
-5.06663e-10
0.00531023
-7.76002e-10
0.00531023
-8.80604e-10
0.00531023
-1.58745e-09
0.00531024
-1.15796e-09
0.00531024
-1.0043e-09
0.00531024
1.85903e-10
0.00531024
9.1111e-10
0.00531024
2.23169e-09
0.00531024
2.05738e-09
0.00531023
2.48308e-09
0.00531023
1.74577e-09
0.00531023
2.03015e-09
0.00531023
2.08459e-09
0.00531023
3.47696e-09
0.00531023
5.11504e-09
0.00531023
7.65146e-09
0.00531023
1.07541e-08
0.00531023
1.59323e-08
0.00531023
2.26292e-08
0.00531023
3.32197e-08
0.00531022
4.82772e-08
0.00531022
6.98704e-08
0.00531021
9.98242e-08
0.0053102
1.40558e-07
0.00531019
1.97088e-07
0.00531017
2.66282e-07
0.00531014
3.62788e-07
0.00531008
4.76969e-07
0.00530995
8.28564e-07
0.0053097
1.76733e-06
0.00530899
6.18827e-06
0.00530736
1.73059e-05
0.0053021
5.16287e-05
8.32145e-05
0.0052782
0.00198014
0.00532474
0.00109222
0.00532387
0.000418815
0.0053224
5.89221e-05
0.00532182
-1.64662e-05
0.00532246
-1.19968e-05
0.00532256
1.0682e-06
0.00532254
9.58033e-06
0.00532236
1.15938e-05
0.00532217
1.14608e-05
0.00532196
1.01676e-05
0.00532177
8.84081e-06
0.00532159
7.56177e-06
0.00532143
6.45307e-06
0.00532128
5.4714e-06
0.00532115
4.6251e-06
0.00532104
3.89069e-06
0.00532094
3.24942e-06
0.00532085
2.6943e-06
0.00532078
2.21858e-06
0.00532071
1.80721e-06
0.00532066
1.45994e-06
0.00532061
1.16842e-06
0.00532057
9.25497e-07
0.00532054
7.25954e-07
0.00532052
5.64587e-07
0.0053205
4.33313e-07
0.00532048
3.30211e-07
0.00532047
2.4769e-07
0.00532046
1.8403e-07
0.00532046
1.36005e-07
0.00532045
1.00156e-07
0.00532045
7.32262e-08
0.00532044
5.48535e-08
0.00532044
3.95836e-08
0.00532044
2.95957e-08
0.00532044
2.15713e-08
0.00532044
1.63317e-08
0.00532044
1.2552e-08
0.00532044
1.00933e-08
0.00532044
7.52124e-09
0.00532043
6.21279e-09
0.00532043
4.83026e-09
0.00532043
3.27061e-09
0.00532043
7.9898e-10
0.00532043
2.93474e-10
0.00532043
-1.81833e-09
0.00532043
-2.6927e-09
0.00532044
-3.94878e-09
0.00532044
-2.59276e-09
0.00532044
-2.56133e-09
0.00532044
-1.897e-09
0.00532044
-5.51251e-10
0.00532044
7.82026e-10
0.00532044
2.06736e-09
0.00532044
4.79935e-09
0.00532044
4.88439e-09
0.00532044
4.68104e-09
0.00532044
2.85626e-09
0.00532044
2.32548e-09
0.00532044
-2.82222e-10
0.00532044
-6.14805e-10
0.00532044
-1.47443e-09
0.00532044
-8.36741e-10
0.00532044
-9.42017e-10
0.00532044
-4.43863e-10
0.00532044
-7.09836e-10
0.00532044
-8.25948e-10
0.00532044
-1.68781e-09
0.00532044
-1.29972e-09
0.00532044
-1.12768e-09
0.00532044
7.75316e-11
0.00532044
8.63433e-10
0.00532044
2.34107e-09
0.00532044
2.17784e-09
0.00532044
2.62075e-09
0.00532044
1.92256e-09
0.00532044
2.23733e-09
0.00532044
2.28492e-09
0.00532043
3.72441e-09
0.00532043
5.42338e-09
0.00532043
8.04018e-09
0.00532043
1.12375e-08
0.00532043
1.66322e-08
0.00532043
2.3619e-08
0.00532043
3.45282e-08
0.00532043
5.00367e-08
0.00532043
7.23353e-08
0.00532042
1.03319e-07
0.00532042
1.457e-07
0.00532041
2.04962e-07
0.0053204
2.79256e-07
0.00532037
3.87326e-07
0.00532033
5.23279e-07
0.00532022
9.3185e-07
0.00532002
1.96632e-06
0.0053195
6.71572e-06
0.0053184
1.84051e-05
0.00531491
5.5119e-05
8.87208e-05
0.00525223
0.0017279
0.00531549
0.00102896
0.00532515
0.000409156
0.00532521
5.88644e-05
0.00532443
-1.56891e-05
0.00532475
-1.23135e-05
0.0053249
9.17703e-07
0.00532512
9.36183e-06
0.00532524
1.14686e-05
0.00532534
1.13592e-05
0.00532541
1.01049e-05
0.00532545
8.79902e-06
0.00532547
7.53972e-06
0.00532548
6.44408e-06
0.00532548
5.47138e-06
0.00532548
4.63114e-06
0.00532547
3.90175e-06
0.00532545
3.26377e-06
0.00532544
2.7106e-06
0.00532542
2.23538e-06
0.0053254
1.82351e-06
0.00532539
1.47536e-06
0.00532538
1.18261e-06
0.00532536
9.37903e-07
0.00532535
7.36424e-07
0.00532534
5.73581e-07
0.00532534
4.41108e-07
0.00532533
3.36452e-07
0.00532532
2.52526e-07
0.00532532
1.87658e-07
0.00532532
1.38662e-07
0.00532532
1.02317e-07
0.00532531
7.48408e-08
0.00532531
5.60721e-08
0.00532531
4.05219e-08
0.00532531
3.03275e-08
0.00532531
2.20416e-08
0.00532531
1.69576e-08
0.00532531
1.32419e-08
0.00532531
1.06632e-08
0.00532531
8.09277e-09
0.00532531
6.73673e-09
0.00532531
5.32957e-09
0.00532531
3.66519e-09
0.00532531
6.96778e-10
0.00532531
1.78472e-11
0.00532531
-1.99671e-09
0.00532531
-2.95585e-09
0.00532531
-4.41643e-09
0.00532531
-3.06518e-09
0.00532531
-2.90618e-09
0.00532531
-2.23942e-09
0.00532531
-8.98785e-10
0.00532531
7.28659e-10
0.00532531
2.07433e-09
0.00532531
4.95572e-09
0.00532531
5.1708e-09
0.00532531
5.01249e-09
0.00532531
3.06765e-09
0.00532531
2.52184e-09
0.00532531
-2.16374e-10
0.00532531
-5.18611e-10
0.00532531
-1.26382e-09
0.00532531
-6.5999e-10
0.00532531
-8.75365e-10
0.00532531
-3.82947e-10
0.00532531
-6.38998e-10
0.00532531
-7.63124e-10
0.00532531
-1.77897e-09
0.00532531
-1.47406e-09
0.00532531
-1.26708e-09
0.00532531
-2.71676e-11
0.00532531
7.69928e-10
0.00532531
2.35689e-09
0.00532531
2.23531e-09
0.00532531
2.72013e-09
0.00532531
2.07405e-09
0.00532531
2.43166e-09
0.00532531
2.45414e-09
0.00532531
3.88767e-09
0.00532531
5.60828e-09
0.00532531
8.2123e-09
0.00532531
1.13989e-08
0.00532531
1.68711e-08
0.00532531
2.39439e-08
0.00532531
3.48644e-08
0.00532531
5.03651e-08
0.0053253
7.28593e-08
0.0053253
1.04102e-07
0.0053253
1.46981e-07
0.0053253
2.07475e-07
0.0053253
2.84913e-07
0.00532528
4.01503e-07
0.00532525
5.5496e-07
0.00532517
1.00689e-06
0.00532504
2.10352e-06
0.00532472
7.034e-06
0.00532417
1.89499e-05
0.00532249
5.68064e-05
9.12124e-05
0.00522929
0.00149861
0.00530555
0.000952691
0.0053242
0.000390513
0.00532568
5.73807e-05
0.00532472
-1.47329e-05
0.00532471
-1.23027e-05
0.00532489
7.43376e-07
0.00532531
8.93455e-06
0.00532571
1.10698e-05
0.00532608
1.09862e-05
0.00532639
9.79679e-06
0.00532665
8.5423e-06
0.00532686
7.33224e-06
0.00532702
6.27577e-06
0.00532716
5.33518e-06
0.00532727
4.52121e-06
0.00532736
3.81454e-06
0.00532743
3.19527e-06
0.00532748
2.6576e-06
0.00532752
2.19475e-06
0.00532756
1.79278e-06
0.00532758
1.45236e-06
0.0053276
1.16565e-06
0.00532761
9.25608e-07
0.00532762
7.27573e-07
0.00532762
5.67347e-07
0.00532763
4.3701e-07
0.00532763
3.33559e-07
0.00532763
2.50473e-07
0.00532763
1.86236e-07
0.00532763
1.3755e-07
0.00532763
1.01589e-07
0.00532763
7.4373e-08
0.00532764
5.57189e-08
0.00532764
4.02863e-08
0.00532764
3.02135e-08
0.00532764
2.19484e-08
0.00532763
1.71028e-08
0.00532763
1.36553e-08
0.00532763
1.10646e-08
0.00532763
8.57038e-09
0.00532763
7.12268e-09
0.00532763
5.65312e-09
0.00532763
3.96398e-09
0.00532763
6.28877e-10
0.00532763
-3.37843e-10
0.00532763
-2.26875e-09
0.00532763
-3.24363e-09
0.00532763
-4.83145e-09
0.00532763
-3.57309e-09
0.00532764
-3.27475e-09
0.00532764
-2.61883e-09
0.00532764
-1.27438e-09
0.00532764
6.50732e-10
0.00532764
2.10581e-09
0.00532764
5.01003e-09
0.00532764
5.35979e-09
0.00532764
5.26822e-09
0.00532763
3.28877e-09
0.00532763
2.75147e-09
0.00532763
-1.59802e-11
0.00532763
-3.59793e-10
0.00532763
-1.00952e-09
0.00532763
-4.39888e-10
0.00532763
-7.4618e-10
0.00532763
-3.21393e-10
0.00532763
-5.67649e-10
0.00532763
-7.1072e-10
0.00532763
-1.83937e-09
0.00532763
-1.67426e-09
0.00532764
-1.4269e-09
0.00532764
-1.43015e-10
0.00532764
6.60842e-10
0.00532764
2.28576e-09
0.00532764
2.24793e-09
0.00532764
2.7976e-09
0.00532763
2.21675e-09
0.00532763
2.59987e-09
0.00532763
2.60904e-09
0.00532763
3.96594e-09
0.00532763
5.67787e-09
0.00532763
8.19111e-09
0.00532763
1.1273e-08
0.00532763
1.66558e-08
0.00532763
2.36191e-08
0.00532764
3.42845e-08
0.00532764
4.94109e-08
0.00532764
7.15339e-08
0.00532764
1.02289e-07
0.00532764
1.4456e-07
0.00532765
2.04723e-07
0.00532765
2.83179e-07
0.00532764
4.04674e-07
0.00532763
5.70042e-07
0.00532759
1.04899e-06
0.00532752
2.1718e-06
0.00532742
7.13268e-06
0.00532743
1.89394e-05
0.00532751
5.67291e-05
9.08329e-05
0.00520965
0.00128896
0.00529608
0.000866258
0.00532235
0.000364246
0.00532515
5.45765e-05
0.00532403
-1.36078e-05
0.00532369
-1.19629e-05
0.00532387
5.64242e-07
0.00532447
8.32962e-06
0.00532511
1.04284e-05
0.00532573
1.03702e-05
0.00532626
9.26723e-06
0.00532671
8.09047e-06
0.00532709
6.95546e-06
0.0053274
5.96129e-06
0.00532766
5.07342e-06
0.00532788
4.30371e-06
0.00532806
3.63568e-06
0.00532821
3.04922e-06
0.00532833
2.53948e-06
0.00532842
2.09986e-06
0.0053285
1.71737e-06
0.00532856
1.3928e-06
0.0053286
1.11898e-06
0.00532864
8.89592e-07
0.00532867
7.00091e-07
0.00532869
5.464e-07
0.0053287
4.21329e-07
0.00532871
3.21781e-07
0.00532872
2.41693e-07
0.00532873
1.79812e-07
0.00532873
1.32759e-07
0.00532874
9.80334e-08
0.00532874
7.18438e-08
0.00532874
5.38321e-08
0.00532874
3.89029e-08
0.00532874
2.92563e-08
0.00532874
2.13256e-08
0.00532875
1.6791e-08
0.00532874
1.37789e-08
0.00532874
1.12873e-08
0.00532874
8.91017e-09
0.00532874
7.34717e-09
0.00532874
5.78793e-09
0.00532874
4.13997e-09
0.00532874
5.98696e-10
0.00532874
-7.30572e-10
0.00532874
-2.63015e-09
0.00532874
-3.56014e-09
0.00532875
-5.1891e-09
0.00532875
-4.09536e-09
0.00532875
-3.63892e-09
0.00532875
-2.9759e-09
0.00532875
-1.63112e-09
0.00532875
5.50015e-10
0.00532875
2.16653e-09
0.00532875
4.99668e-09
0.00532875
5.45433e-09
0.00532875
5.4395e-09
0.00532875
3.52443e-09
0.00532875
3.02103e-09
0.00532875
2.93605e-10
0.00532875
-1.43757e-10
0.00532875
-7.20706e-10
0.00532875
-1.88958e-10
0.00532875
-5.64841e-10
0.00532875
-2.58321e-10
0.00532875
-5.08251e-10
0.00532875
-6.74201e-10
0.00532875
-1.86629e-09
0.00532875
-1.88111e-09
0.00532875
-1.61081e-09
0.00532875
-2.84404e-10
0.00532875
5.47462e-10
0.00532875
2.16701e-09
0.00532875
2.23504e-09
0.00532875
2.86998e-09
0.00532875
2.36351e-09
0.00532875
2.73502e-09
0.00532875
2.74387e-09
0.00532875
3.96709e-09
0.00532875
5.62191e-09
0.00532875
7.97513e-09
0.00532875
1.08653e-08
0.00532875
1.60138e-08
0.00532875
2.26861e-08
0.00532875
3.28249e-08
0.00532875
4.72316e-08
0.00532875
6.84666e-08
0.00532876
9.80092e-08
0.00532877
1.38636e-07
0.00532877
1.96896e-07
0.00532878
2.74124e-07
0.00532879
3.9651e-07
0.00532879
5.67314e-07
0.00532879
1.05527e-06
0.00532879
2.16745e-06
0.00532891
7.01028e-06
0.00532946
1.83891e-05
0.00533122
5.49778e-05
8.77837e-05
0.00519316
0.0010958
0.00528756
0.000771862
0.00532026
0.000331547
0.00532427
5.05643e-05
0.00532298
-1.23211e-05
0.00532232
-1.13006e-05
0.00532249
3.96608e-07
0.00532324
7.57599e-06
0.0053241
9.57501e-06
0.00532493
9.53961e-06
0.00532565
8.54069e-06
0.00532628
7.46421e-06
0.00532681
6.42652e-06
0.00532726
5.51483e-06
0.00532763
4.69776e-06
0.00532795
3.9882e-06
0.00532821
3.37295e-06
0.00532843
2.83197e-06
0.00532861
2.36138e-06
0.00532875
1.95475e-06
0.00532887
1.60037e-06
0.00532896
1.29917e-06
0.00532904
1.04459e-06
0.00532909
8.31325e-07
0.00532914
6.55013e-07
0.00532917
5.11597e-07
0.0053292
3.94733e-07
0.00532922
3.01599e-07
0.00532924
2.2649e-07
0.00532925
1.68563e-07
0.00532926
1.24427e-07
0.00532926
9.18095e-08
0.00532927
6.73072e-08
0.00532927
5.0482e-08
0.00532927
3.64382e-08
0.00532927
2.75276e-08
0.00532927
2.0201e-08
0.00532927
1.60581e-08
0.00532927
1.35795e-08
0.00532927
1.13281e-08
0.00532927
9.09186e-09
0.00532927
7.40863e-09
0.00532927
5.72762e-09
0.00532927
4.16479e-09
0.00532927
5.80418e-10
0.00532927
-1.1032e-09
0.00532928
-3.06366e-09
0.00532928
-3.89129e-09
0.00532928
-5.47663e-09
0.00532928
-4.57061e-09
0.00532928
-3.97693e-09
0.00532928
-3.25452e-09
0.00532928
-1.93532e-09
0.00532928
4.46753e-10
0.00532928
2.22974e-09
0.00532928
4.94793e-09
0.00532928
5.47338e-09
0.00532928
5.52832e-09
0.00532928
3.72918e-09
0.00532928
3.30827e-09
0.00532928
6.53376e-10
0.00532928
1.07618e-10
0.00532928
-4.2933e-10
0.00532928
7.84107e-11
0.00532928
-3.59685e-10
0.00532928
-1.92503e-10
0.00532928
-4.8154e-10
0.00532928
-6.53762e-10
0.00532928
-1.87313e-09
0.00532928
-2.0723e-09