/*--------------------------------*- C++ -*----------------------------------*\
| =========                 |                                                 |
| \\      /  F ield         | OpenFOAM: The Open Source CFD Toolbox           |
|  \\    /   O peration     | Version:  v1906                                 |
|   \\  /    A nd           | Web:      www.OpenFOAM.com                      |
|    \\/     M anipulation  |                                                 |
\*---------------------------------------------------------------------------*/
FoamFile
{
    version     2.0;
    format      ascii;
    class       surfaceScalarField;
    location    "1";
    object      phiB;
}
// * * * * * * * * * * * * * * * * * * * * * * * * * * * * * * * * * * * * * //

dimensions      [1 2 -2 0 0 -1 0];
oriented        oriented;


internalField   nonuniform List<scalar> 
7860
(
0.00184041
0.399599
0.00215245
0.399688
0.00234235
0.39981
0.00247842
0.399864
0.00256028
0.399918
0.00260222
0.399958
0.00261847
0.399984
0.00261886
0.4
0.00261023
0.400009
0.00259684
0.400013
0.00258146
0.400015
0.0025658
0.400016
0.00255086
0.400015
0.0025372
0.400014
0.00252509
0.400012
0.00251459
0.40001
0.00250566
0.400009
0.00249816
0.400007
0.00249195
0.400006
0.00248687
0.400005
0.00248275
0.400004
0.00247943
0.400003
0.00247679
0.400003
0.00247469
0.400002
0.00247305
0.400002
0.00247176
0.400001
0.00247076
0.400001
0.00246999
0.400001
0.00246939
0.400001
0.00246894
0.4
0.00246859
0.4
0.00246833
0.4
0.00246813
0.4
0.00246798
0.4
0.00246786
0.4
0.00246778
0.4
0.00246772
0.4
0.00246767
0.4
0.00246763
0.4
0.00246761
0.4
0.00246759
0.4
0.00246757
0.4
0.00246756
0.4
0.00246755
0.4
0.00246755
0.4
0.00246754
0.4
0.00246754
0.4
0.00246754
0.4
0.00246754
0.4
0.00246754
0.4
0.00246753
0.4
0.00246753
0.4
0.00246753
0.4
0.00246753
0.4
0.00246753
0.4
0.00246753
0.4
0.00246753
0.4
0.00246753
0.4
0.00246753
0.4
0.00246753
0.4
0.00246753
0.4
0.00246753
0.4
0.00246753
0.4
0.00246753
0.4
0.00246753
0.4
0.00246753
0.4
0.00246753
0.4
0.00246753
0.4
0.00246753
0.4
0.00246753
0.4
0.00246753
0.4
0.00246753
0.4
0.00246752
0.4
0.00246752
0.4
0.00246752
0.4
0.00246751
0.4
0.00246751
0.4
0.0024675
0.4
0.00246749
0.4
0.00246747
0.4
0.00246745
0.4
0.00246742
0.4
0.00246738
0.4
0.00246733
0.4
0.00246727
0.4
0.00246719
0.4
0.0024671
0.4
0.00246699
0.4
0.00246685
0.4
0.00246671
0.4
0.00246657
0.4
0.00246647
0.4
0.00246646
0.4
0.00246663
0.4
0.00246712
0.4
0.00246808
0.399999
0.0024693
0.399999
0.00246982
0.399999
0.00246564
0.400004
0.400015
0.00295627
0.398847
0.00343296
0.399211
0.00372909
0.399514
0.00392633
0.399667
0.00404427
0.3998
0.00410654
0.399896
0.00413252
0.399958
0.00413607
0.399996
0.0041266
0.400018
0.00411012
0.40003
0.00409052
0.400035
0.00407021
0.400036
0.00405064
0.400035
0.00403264
0.400032
0.00401659
0.400028
0.00400264
0.400024
0.00399072
0.400021
0.00398069
0.400018
0.00397237
0.400015
0.00396554
0.400012
0.00395999
0.40001
0.00395552
0.400008
0.00395195
0.400006
0.00394912
0.400005
0.00394689
0.400004
0.00394515
0.400003
0.00394379
0.400002
0.00394274
0.400002
0.00394193
0.400001
0.00394131
0.400001
0.00394084
0.400001
0.00394048
0.400001
0.00394021
0.4
0.00394
0.4
0.00393985
0.4
0.00393973
0.4
0.00393964
0.4
0.00393958
0.4
0.00393953
0.4
0.0039395
0.4
0.00393947
0.4
0.00393945
0.4
0.00393943
0.4
0.00393942
0.4
0.00393942
0.4
0.00393941
0.4
0.0039394
0.4
0.0039394
0.4
0.0039394
0.4
0.0039394
0.4
0.0039394
0.4
0.0039394
0.4
0.00393939
0.4
0.00393939
0.4
0.00393939
0.4
0.00393939
0.4
0.00393939
0.4
0.00393939
0.4
0.00393939
0.4
0.00393939
0.4
0.00393939
0.4
0.00393939
0.4
0.00393939
0.4
0.00393939
0.4
0.00393939
0.4
0.00393939
0.4
0.00393939
0.4
0.00393939
0.4
0.00393939
0.4
0.00393939
0.4
0.00393939
0.4
0.00393939
0.4
0.00393938
0.4
0.00393938
0.4
0.00393937
0.4
0.00393937
0.4
0.00393936
0.4
0.00393935
0.4
0.00393933
0.4
0.00393931
0.4
0.00393928
0.4
0.00393924
0.4
0.00393919
0.4
0.00393912
0.4
0.00393904
0.4
0.00393894
0.4
0.00393882
0.4
0.00393867
0.4
0.0039385
0.4
0.00393833
0.4
0.00393817
0.4
0.00393808
0.4
0.00393815
0.4
0.0039385
0.399999
0.00393934
0.399999
0.00394088
0.399998
0.00394292
0.399997
0.00394419
0.399998
0.00393922
0.400009
0.400031
0.00317087
0.397988
0.00367982
0.398702
0.00400397
0.39919
0.00421133
0.399459
0.00433448
0.399677
0.00440133
0.399829
0.00443118
0.399928
0.00443815
0.399989
0.00443155
0.400025
0.00441748
0.400044
0.00439987
0.400053
0.00438121
0.400055
0.00436299
0.400053
0.00434608
0.400049
0.00433092
0.400043
0.00431767
0.400038
0.00430631
0.400032
0.00429673
0.400027
0.00428875
0.400023
0.00428218
0.400018
0.00427684
0.400015
0.00427252
0.400012
0.00426907
0.40001
0.00426633
0.400008
0.00426416
0.400006
0.00426247
0.400005
0.00426115
0.400004
0.00426013
0.400003
0.00425934
0.400002
0.00425873
0.400002
0.00425827
0.400001
0.00425792
0.400001
0.00425765
0.400001
0.00425745
0.400001
0.0042573
0.4
0.00425719
0.4
0.0042571
0.4
0.00425704
0.4
0.00425699
0.4
0.00425695
0.4
0.00425693
0.4
0.00425691
0.4
0.00425689
0.4
0.00425688
0.4
0.00425688
0.4
0.00425687
0.4
0.00425686
0.4
0.00425686
0.4
0.00425686
0.4
0.00425686
0.4
0.00425686
0.4
0.00425686
0.4
0.00425685
0.4
0.00425685
0.4
0.00425685
0.4
0.00425685
0.4
0.00425685
0.4
0.00425685
0.4
0.00425685
0.4
0.00425685
0.4
0.00425685
0.4
0.00425685
0.4
0.00425685
0.4
0.00425685
0.4
0.00425685
0.4
0.00425685
0.4
0.00425685
0.4
0.00425685
0.4
0.00425685
0.4
0.00425685
0.4
0.00425685
0.4
0.00425685
0.4
0.00425684
0.4
0.00425684
0.4
0.00425683
0.4
0.00425683
0.4
0.00425682
0.4
0.00425681
0.4
0.00425679
0.4
0.00425677
0.4
0.00425674
0.4
0.0042567
0.4
0.00425666
0.4
0.00425659
0.4
0.00425652
0.4
0.00425642
0.4
0.0042563
0.4
0.00425617
0.4
0.00425602
0.4
0.00425588
0.4
0.00425576
0.4
0.00425574
0.4
0.0042559
0.4
0.00425639
0.399999
0.00425743
0.399998
0.00425928
0.399996
0.00426188
0.399994
0.00426434
0.399996
0.0042625
0.400011
0.400041
0.00303338
0.397117
0.00355979
0.398176
0.00390062
0.398849
0.00411427
0.399246
0.00424124
0.39955
0.00431164
0.399759
0.00434485
0.399895
0.00435494
0.399979
0.00435107
0.400029
0.00433936
0.400056
0.00432376
0.400068
0.00430678
0.400072
0.00428997
0.40007
0.00427422
0.400064
0.00426001
0.400058
0.00424753
0.40005
0.00423679
0.400043
0.0042277
0.400036
0.00422011
0.40003
0.00421385
0.400025
0.00420874
0.40002
0.00420461
0.400016
0.0042013
0.400013
0.00419867
0.40001
0.00419659
0.400008
0.00419495
0.400006
0.00419368
0.400005
0.00419269
0.400004
0.00419193
0.400003
0.00419134
0.400002
0.00419089
0.400002
0.00419055
0.400001
0.00419029
0.400001
0.0041901
0.400001
0.00418995
0.400001
0.00418984
0.4
0.00418975
0.4
0.00418969
0.4
0.00418965
0.4
0.00418961
0.4
0.00418959
0.4
0.00418957
0.4
0.00418955
0.4
0.00418954
0.4
0.00418953
0.4
0.00418953
0.4
0.00418952
0.4
0.00418952
0.4
0.00418952
0.4
0.00418952
0.4
0.00418952
0.4
0.00418952
0.4
0.00418951
0.4
0.00418951
0.4
0.00418951
0.4
0.00418951
0.4
0.00418951
0.4
0.00418951
0.4
0.00418951
0.4
0.00418951
0.4
0.00418951
0.4
0.00418951
0.4
0.00418951
0.4
0.00418951
0.4
0.00418951
0.4
0.00418951
0.4
0.00418951
0.4
0.00418951
0.4
0.00418951
0.4
0.00418951
0.4
0.00418951
0.4
0.00418951
0.4
0.0041895
0.4
0.0041895
0.4
0.00418949
0.4
0.00418949
0.4
0.00418948
0.4
0.00418947
0.4
0.00418945
0.4
0.00418943
0.4
0.0041894
0.4
0.00418937
0.4
0.00418932
0.4
0.00418926
0.4
0.00418919
0.4
0.0041891
0.4
0.00418899
0.4
0.00418887
0.400001
0.00418874
0.400001
0.00418863
0.400001
0.00418856
0.4
0.0041886
0.4
0.00418885
0.4
0.00418947
0.399998
0.00419071
0.399996
0.00419288
0.399993
0.00419612
0.399991
0.00420014
0.399992
0.00420278
0.400008
0.400041
0.0027975
0.396292
0.00332888
0.397645
0.00367683
0.398501
0.00389322
0.399029
0.00402239
0.399421
0.00409525
0.399686
0.00413113
0.399859
0.00414387
0.399966
0.00414244
0.40003
0.00413292
0.400065
0.00411922
0.400082
0.00410388
0.400087
0.00408846
0.400085
0.00407387
0.400079
0.00406062
0.400071
0.00404893
0.400062
0.00403883
0.400053
0.00403026
0.400045
0.00402308
0.400037
0.00401715
0.400031
0.00401229
0.400025
0.00400836
0.40002
0.00400521
0.400016
0.00400269
0.400013
0.0040007
0.40001
0.00399914
0.400008
0.00399792
0.400006
0.00399697
0.400005
0.00399624
0.400004
0.00399567
0.400003
0.00399524
0.400002
0.00399491
0.400002
0.00399466
0.400001
0.00399447
0.400001
0.00399433
0.400001
0.00399422
0.400001
0.00399414
0.4
0.00399408
0.4
0.00399404
0.4
0.003994
0.4
0.00399398
0.4
0.00399396
0.4
0.00399394
0.4
0.00399393
0.4
0.00399393
0.4
0.00399392
0.4
0.00399392
0.4
0.00399391
0.4
0.00399391
0.4
0.00399391
0.4
0.00399391
0.4
0.00399391
0.4
0.00399391
0.4
0.00399391
0.4
0.00399391
0.4
0.00399391
0.4
0.00399391
0.4
0.00399391
0.4
0.00399391
0.4
0.00399391
0.4
0.00399391
0.4
0.00399391
0.4
0.00399391
0.4
0.00399391
0.4
0.00399391
0.4
0.00399391
0.4
0.00399391
0.4
0.0039939
0.4
0.0039939
0.4
0.0039939
0.4
0.0039939
0.4
0.0039939
0.4
0.0039939
0.4
0.00399389
0.4
0.00399389
0.4
0.00399388
0.4
0.00399387
0.4
0.00399386
0.4
0.00399385
0.4
0.00399383
0.4
0.0039938
0.4
0.00399377
0.4
0.00399372
0.4
0.00399367
0.4
0.0039936
0.4
0.00399352
0.4
0.00399342
0.400001
0.00399331
0.400001
0.0039932
0.400001
0.00399312
0.400001
0.00399309
0.400001
0.00399318
0.4
0.00399352
0.399999
0.00399426
0.399998
0.00399569
0.399995
0.00399816
0.399991
0.00400208
0.399987
0.00400773
0.399986
0.0040149
0.400001
0.400033
0.00254614
0.395537
0.00307065
0.39712
0.00341832
0.398153
0.00363423
0.398813
0.0037639
0.399291
0.00383808
0.399611
0.00387589
0.399821
0.00389077
0.399951
0.00389145
0.400029
0.0038839
0.400073
0.00387197
0.400094
0.00385818
0.400101
0.00384409
0.400099
0.00383065
0.400092
0.00381835
0.400083
0.00380745
0.400073
0.003798
0.400063
0.00378996
0.400053
0.0037832
0.400044
0.00377761
0.400036
0.00377303
0.40003
0.00376931
0.400024
0.00376632
0.400019
0.00376393
0.400015
0.00376204
0.400012
0.00376055
0.400009
0.00375938
0.400007
0.00375848
0.400006
0.00375778
0.400004
0.00375724
0.400003
0.00375683
0.400003
0.00375651
0.400002
0.00375627
0.400001
0.00375609
0.400001
0.00375595
0.400001
0.00375585
0.400001
0.00375577
0.4
0.00375571
0.4
0.00375567
0.4
0.00375564
0.4
0.00375561
0.4
0.00375559
0.4
0.00375558
0.4
0.00375557
0.4
0.00375556
0.4
0.00375556
0.4
0.00375555
0.4
0.00375555
0.4
0.00375555
0.4
0.00375555
0.4
0.00375555
0.4
0.00375555
0.4
0.00375555
0.4
0.00375554
0.4
0.00375554
0.4
0.00375554
0.4
0.00375554
0.4
0.00375554
0.4
0.00375554
0.4
0.00375554
0.4
0.00375554
0.4
0.00375554
0.4
0.00375554
0.4
0.00375554
0.4
0.00375554
0.4
0.00375554
0.4
0.00375554
0.4
0.00375554
0.4
0.00375554
0.4
0.00375554
0.4
0.00375554
0.4
0.00375554
0.4
0.00375553
0.4
0.00375553
0.4
0.00375553
0.4
0.00375552
0.4
0.00375551
0.4
0.0037555
0.4
0.00375549
0.4
0.00375547
0.4
0.00375544
0.4
0.00375541
0.4
0.00375537
0.4
0.00375532
0.4
0.00375525
0.4
0.00375518
0.400001
0.00375509
0.400001
0.00375499
0.400001
0.0037549
0.400001
0.00375484
0.400001
0.00375485
0.4
0.003755
0.4
0.0037554
0.399999
0.00375625
0.399997
0.00375784
0.399993
0.0037606
0.399988
0.00376516
0.399982
0.00377236
0.399979
0.00378354
0.39999
0.400018
0.00230452
0.394858
0.00281197
0.396613
0.00315342
0.397812
0.00336593
0.398601
0.0034944
0.399163
0.00356878
0.399537
0.00360775
0.399782
0.00362424
0.399935
0.00362668
0.400027
0.00362086
0.400079
0.00361055
0.400104
0.00359822
0.400113
0.00358542
0.400112
0.00357309
0.400105
0.00356174
0.400094
0.00355163
0.400083
0.00354283
0.400071
0.00353532
0.40006
0.003529
0.40005
0.00352376
0.400042
0.00351945
0.400034
0.00351595
0.400027
0.00351313
0.400022
0.00351088
0.400017
0.00350909
0.400014
0.00350768
0.400011
0.00350658
0.400008
0.00350572
0.400007
0.00350506
0.400005
0.00350454
0.400004
0.00350415
0.400003
0.00350385
0.400002
0.00350362
0.400002
0.00350345
0.400001
0.00350332
0.400001
0.00350322
0.400001
0.00350315
0.400001
0.00350309
0.4
0.00350305
0.4
0.00350302
0.4
0.003503
0.4
0.00350298
0.4
0.00350297
0.4
0.00350296
0.4
0.00350295
0.4
0.00350294
0.4
0.00350294
0.4
0.00350294
0.4
0.00350293
0.4
0.00350293
0.4
0.00350293
0.4
0.00350293
0.4
0.00350293
0.4
0.00350293
0.4
0.00350293
0.4
0.00350293
0.4
0.00350293
0.4
0.00350293
0.4
0.00350293
0.4
0.00350293
0.4
0.00350293
0.4
0.00350293
0.4
0.00350293
0.4
0.00350293
0.4
0.00350293
0.4
0.00350293
0.4
0.00350293
0.4
0.00350293
0.4
0.00350293
0.4
0.00350293
0.4
0.00350292
0.4
0.00350292
0.4
0.00350292
0.4
0.00350292
0.4
0.00350291
0.4
0.00350291
0.4
0.0035029
0.4
0.00350289
0.4
0.00350288
0.4
0.00350286
0.4
0.00350283
0.4
0.0035028
0.4
0.00350276
0.4
0.00350272
0.4
0.00350266
0.4
0.00350259
0.400001
0.00350251
0.400001
0.00350243
0.400001
0.00350235
0.400001
0.00350231
0.400001
0.00350235
0.4
0.00350254
0.4
0.00350301
0.399998
0.00350395
0.399996
0.00350567
0.399992
0.00350868
0.399985
0.0035138
0.399977
0.00352234
0.39997
0.00353685
0.399975
0.399997
0.00207861
0.394255
0.00256094
0.39613
0.00289124
0.397482
0.00309772
0.398394
0.00322336
0.399037
0.00329684
0.399464
0.00333622
0.399743
0.0033538
0.399917
0.00335765
0.400023
0.00335334
0.400083
0.0033445
0.400113
0.00333354
0.400124
0.00332197
0.400123
0.00331071
0.400116
0.00330029
0.400105
0.00329096
0.400092
0.00328282
0.400079
0.00327585
0.400067
0.00326998
0.400056
0.00326509
0.400046
0.00326107
0.400038
0.0032578
0.400031
0.00325516
0.400025
0.00325305
0.40002
0.00325137
0.400015
0.00325005
0.400012
0.00324901
0.400009
0.0032482
0.400007
0.00324758
0.400006
0.00324709
0.400004
0.00324672
0.400003
0.00324644
0.400003
0.00324622
0.400002
0.00324606
0.400001
0.00324593
0.400001
0.00324584
0.400001
0.00324577
0.400001
0.00324572
0.4
0.00324568
0.4
0.00324565
0.4
0.00324563
0.4
0.00324561
0.4
0.0032456
0.4
0.00324559
0.4
0.00324558
0.4
0.00324558
0.4
0.00324557
0.4
0.00324557
0.4
0.00324557
0.4
0.00324557
0.4
0.00324557
0.4
0.00324557
0.4
0.00324557
0.4
0.00324557
0.4
0.00324557
0.4
0.00324557
0.4
0.00324557
0.4
0.00324556
0.4
0.00324556
0.4
0.00324556
0.4
0.00324556
0.4
0.00324556
0.4
0.00324556
0.4
0.00324556
0.4
0.00324556
0.4
0.00324556
0.4
0.00324556
0.4
0.00324556
0.4
0.00324556
0.4
0.00324556
0.4
0.00324556
0.4
0.00324556
0.4
0.00324556
0.4
0.00324555
0.4
0.00324555
0.4
0.00324554
0.4
0.00324554
0.4
0.00324553
0.4
0.00324551
0.4
0.0032455
0.4
0.00324547
0.4
0.00324545
0.4
0.00324541
0.4
0.00324536
0.4
0.00324531
0.400001
0.00324525
0.400001
0.00324518
0.400001
0.00324511
0.400001
0.00324505
0.400001
0.00324503
0.400001
0.00324509
0.4
0.00324532
0.4
0.00324583
0.399998
0.00324683
0.399995
0.00324867
0.39999
0.00325187
0.399982
0.00325744
0.399972
0.00326707
0.399961
0.00328415
0.399958
0.399971
0.00186826
0.393723
0.00231947
0.395679
0.00263448
0.397167
0.00283258
0.398196
0.00295385
0.398916
0.00302537
0.399392
0.00306445
0.399704
0.00308262
0.399899
0.00308755
0.400018
0.00308451
0.400086
0.00307699
0.40012
0.0030673
0.400134
0.00305691
0.400134
0.0030467
0.400126
0.00303719
0.400114
0.00302864
0.400101
0.00302116
0.400087
0.00301473
0.400074
0.00300931
0.400062
0.00300479
0.400051
0.00300106
0.400042
0.00299803
0.400034
0.00299558
0.400027
0.00299361
0.400022
0.00299205
0.400017
0.00299081
0.400013
0.00298984
0.40001
0.00298909
0.400008
0.0029885
0.400006
0.00298805
0.400005
0.0029877
0.400004
0.00298744
0.400003
0.00298723
0.400002
0.00298708
0.400002
0.00298696
0.400001
0.00298688
0.400001
0.00298681
0.400001
0.00298676
0.400001
0.00298672
0.4
0.0029867
0.4
0.00298667
0.4
0.00298666
0.4
0.00298665
0.4
0.00298664
0.4
0.00298663
0.4
0.00298663
0.4
0.00298663
0.4
0.00298662
0.4
0.00298662
0.4
0.00298662
0.4
0.00298662
0.4
0.00298662
0.4
0.00298662
0.4
0.00298662
0.4
0.00298662
0.4
0.00298662
0.4
0.00298662
0.4
0.00298662
0.4
0.00298662
0.4
0.00298662
0.4
0.00298662
0.4
0.00298662
0.4
0.00298662
0.4
0.00298662
0.4
0.00298662
0.4
0.00298662
0.4
0.00298661
0.4
0.00298661
0.4
0.00298661
0.4
0.00298661
0.4
0.00298661
0.4
0.00298661
0.4
0.00298661
0.4
0.00298661
0.4
0.0029866
0.4
0.0029866
0.4
0.00298659
0.4
0.00298658
0.4
0.00298657
0.4
0.00298655
0.4
0.00298653
0.4
0.0029865
0.4
0.00298647
0.4
0.00298643
0.4
0.00298638
0.400001
0.00298632
0.400001
0.00298626
0.400001
0.0029862
0.400001
0.00298616
0.400001
0.00298615
0.400001
0.00298624
0.4
0.00298649
0.399999
0.00298703
0.399997
0.00298808
0.399994
0.00298999
0.399988
0.00299332
0.399979
0.00299922
0.399966
0.00300962
0.39995
0.00302852
0.39994
0.399942
0.00167152
0.393257
0.00208744
0.395263
0.0023837
0.39687
0.00257127
0.398009
0.00268675
0.3988
0.00275536
0.399324
0.00279344
0.399666
0.00281173
0.399881
0.0028174
0.400012
0.00281543
0.400088
0.00280909
0.400127
0.00280059
0.400142
0.00279131
0.400143
0.00278211
0.400135
0.0027735
0.400123
0.00276572
0.400109
0.0027589
0.400094
0.00275302
0.40008
0.00274805
0.400067
0.0027439
0.400055
0.00274048
0.400045
0.00273769
0.400036
0.00273543
0.400029
0.00273362
0.400023
0.00273217
0.400018
0.00273103
0.400015
0.00273014
0.400011
0.00272944
0.400009
0.00272889
0.400007
0.00272847
0.400005
0.00272815
0.400004
0.0027279
0.400003
0.00272772
0.400002
0.00272757
0.400002
0.00272746
0.400001
0.00272738
0.400001
0.00272732
0.400001
0.00272727
0.400001
0.00272724
0.4
0.00272721
0.4
0.00272719
0.4
0.00272718
0.4
0.00272717
0.4
0.00272716
0.4
0.00272716
0.4
0.00272715
0.4
0.00272715
0.4
0.00272715
0.4
0.00272714
0.4
0.00272714
0.4
0.00272714
0.4
0.00272714
0.4
0.00272714
0.4
0.00272714
0.4
0.00272714
0.4
0.00272714
0.4
0.00272714
0.4
0.00272714
0.4
0.00272714
0.4
0.00272714
0.4
0.00272714
0.4
0.00272714
0.4
0.00272714
0.4
0.00272714
0.4
0.00272714
0.4
0.00272714
0.4
0.00272714
0.4
0.00272714
0.4
0.00272714
0.4
0.00272714
0.4
0.00272714
0.4
0.00272713
0.4
0.00272713
0.4
0.00272713
0.4
0.00272713
0.4
0.00272712
0.4
0.00272711
0.4
0.00272711
0.4
0.00272709
0.4
0.00272708
0.4
0.00272706
0.4
0.00272704
0.4
0.00272701
0.4
0.00272697
0.400001
0.00272692
0.400001
0.00272687
0.400001
0.00272682
0.400001
0.00272677
0.400001
0.00272673
0.400001
0.00272675
0.400001
0.00272685
0.4
0.00272711
0.399999
0.00272768
0.399997
0.00272874
0.399993
0.00273068
0.399986
0.00273407
0.399975
0.00274014
0.39996
0.00275101
0.399939
0.002771
0.39992
0.399911
0.00148617
0.392851
0.0018641
0.394885
0.0021387
0.396596
0.00231386
0.397834
0.00242223
0.398692
0.00248704
0.399259
0.00252348
0.399629
0.00254144
0.399863
0.00254756
0.400006
0.00254644
0.400089
0.00254115
0.400132
0.00253374
0.40015
0.00252552
0.400151
0.00251731
0.400144
0.00250958
0.400131
0.00250257
0.400116
0.0024964
0.4001
0.00249108
0.400085
0.00248657
0.400071
0.0024828
0.400059
0.00247968
0.400048
0.00247714
0.400039
0.00247508
0.400031
0.00247342
0.400025
0.0024721
0.40002
0.00247106
0.400016
0.00247024
0.400012
0.0024696
0.400009
0.0024691
0.400007
0.00246871
0.400006
0.00246842
0.400004
0.00246819
0.400003
0.00246802
0.400002
0.00246789
0.400002
0.00246779
0.400001
0.00246771
0.400001
0.00246765
0.400001
0.00246761
0.400001
0.00246758
0.4
0.00246756
0.4
0.00246754
0.4
0.00246752
0.4
0.00246752
0.4
0.00246751
0.4
0.0024675
0.4
0.0024675
0.4
0.0024675
0.4
0.00246749
0.4
0.00246749
0.4
0.00246749
0.4
0.00246749
0.4
0.00246749
0.4
0.00246749
0.4
0.00246749
0.4
0.00246749
0.4
0.00246749
0.4
0.00246749
0.4
0.00246749
0.4
0.00246749
0.4
0.00246749
0.4
0.00246749
0.4
0.00246749
0.4
0.00246749
0.4
0.00246749
0.4
0.00246749
0.4
0.00246749
0.4
0.00246749
0.4
0.00246749
0.4
0.00246749
0.4
0.00246748
0.4
0.00246748
0.4
0.00246748
0.4
0.00246748
0.4
0.00246748
0.4
0.00246747
0.4
0.00246747
0.4
0.00246746
0.4
0.00246746
0.4
0.00246745
0.4
0.00246743
0.4
0.00246742
0.4
0.00246739
0.4
0.00246737
0.4
0.00246733
0.400001
0.00246729
0.400001
0.00246725
0.400001
0.0024672
0.400001
0.00246716
0.400001
0.00246713
0.400001
0.00246715
0.400001
0.00246727
0.4
0.00246754
0.399999
0.00246811
0.399996
0.00246917
0.399992
0.00247109
0.399984
0.00247447
0.399972
0.00248056
0.399954
0.00249157
0.399928
0.00251195
0.399899
0.399879
0.00131012
0.3925
0.0016485
0.394547
0.00189906
0.396345
0.0020601
0.397672
0.00216021
0.398592
0.00222039
0.399199
0.0022546
0.399595
0.00227182
0.399846
0.0022781
0.4
0.00227765
0.400089
0.00227328
0.400136
0.00226688
0.400156
0.00225968
0.400158
0.00225242
0.400151
0.00224555
0.400138
0.0022393
0.400122
0.00223379
0.400105
0.00222902
0.40009
0.00222498
0.400075
0.00222159
0.400062
0.00221879
0.400051
0.00221649
0.400041
0.00221464
0.400033
0.00221314
0.400026
0.00221195
0.400021
0.00221101
0.400016
0.00221027
0.400013
0.00220969
0.40001
0.00220924
0.400008
0.00220889
0.400006
0.00220862
0.400005
0.00220842
0.400003
0.00220826
0.400003
0.00220814
0.400002
0.00220805
0.400002
0.00220798
0.400001
0.00220793
0.400001
0.00220789
0.400001
0.00220786
0.4
0.00220784
0.4
0.00220782
0.4
0.00220781
0.4
0.0022078
0.4
0.00220779
0.4
0.00220779
0.4
0.00220779
0.4
0.00220778
0.4
0.00220778
0.4
0.00220778
0.4
0.00220778
0.4
0.00220778
0.4
0.00220778
0.4
0.00220778
0.4
0.00220778
0.4
0.00220778
0.4
0.00220778
0.4
0.00220778
0.4
0.00220778
0.4
0.00220778
0.4
0.00220778
0.4
0.00220778
0.4
0.00220778
0.4
0.00220778
0.4
0.00220778
0.4
0.00220778
0.4
0.00220778
0.4
0.00220778
0.4
0.00220777
0.4
0.00220777
0.4
0.00220777
0.4
0.00220777
0.4
0.00220777
0.4
0.00220777
0.4
0.00220777
0.4
0.00220776
0.4
0.00220776
0.4
0.00220776
0.4
0.00220775
0.4
0.00220774
0.4
0.00220773
0.4
0.00220771
0.4
0.00220769
0.4
0.00220767
0.4
0.00220764
0.400001
0.0022076
0.400001
0.00220756
0.400001
0.00220752
0.400001
0.00220748
0.400001
0.00220747
0.400001
0.0022075
0.400001
0.00220761
0.4
0.00220789
0.399998
0.00220844
0.399996
0.00220948
0.399991
0.00221134
0.399982
0.00221462
0.399969
0.00222058
0.399948
0.00223142
0.399918
0.00225153
0.399879
0.399848
0.0011416
0.392199
0.00143965
0.394249
0.00166424
0.396121
0.0018097
0.397527
0.00190048
0.398501
0.0019553
0.399144
0.00198676
0.399563
0.00200287
0.39983
0.00200905
0.399994
0.00200908
0.400089
0.00200551
0.40014
0.00200006
0.400161
0.00199382
0.400165
0.00198749
0.400157
0.00198146
0.400144
0.00197597
0.400127
0.00197111
0.40011
0.0019669
0.400094
0.00196332
0.400079
0.00196032
0.400065
0.00195784
0.400053
0.00195581
0.400043
0.00195416
0.400035
0.00195283
0.400028
0.00195177
0.400022
0.00195093
0.400017
0.00195027
0.400014
0.00194975
0.400011
0.00194935
0.400008
0.00194904
0.400006
0.0019488
0.400005
0.00194862
0.400004
0.00194848
0.400003
0.00194837
0.400002
0.00194829
0.400002
0.00194823
0.400001
0.00194818
0.400001
0.00194815
0.400001
0.00194812
0.400001
0.0019481
0.4
0.00194809
0.4
0.00194808
0.4
0.00194807
0.4
0.00194806
0.4
0.00194806
0.4
0.00194805
0.4
0.00194805
0.4
0.00194805
0.4
0.00194805
0.4
0.00194805
0.4
0.00194805
0.4
0.00194805
0.4
0.00194805
0.4
0.00194805
0.4
0.00194805
0.4
0.00194805
0.4
0.00194805
0.4
0.00194805
0.4
0.00194805
0.4
0.00194805
0.4
0.00194805
0.4
0.00194805
0.4
0.00194805
0.4
0.00194805
0.4
0.00194805
0.4
0.00194805
0.4
0.00194805
0.4
0.00194804
0.4
0.00194804
0.4
0.00194804
0.4
0.00194804
0.4
0.00194804
0.4
0.00194804
0.4
0.00194804
0.4
0.00194804
0.4
0.00194803
0.4
0.00194803
0.4
0.00194802
0.4
0.00194801
0.4
0.001948
0.4
0.00194799
0.4
0.00194797
0.4
0.00194795
0.4
0.00194792
0.400001
0.00194789
0.400001
0.00194786
0.400001
0.00194782
0.400001
0.00194779
0.400001
0.00194778
0.400001
0.00194782
0.400001
0.00194793
0.4
0.0019482
0.399998
0.00194873
0.399995
0.00194971
0.39999
0.00195147
0.39998
0.00195458
0.399966
0.00196026
0.399942
0.00197062
0.399907
0.00198985
0.39986
0.399818
0.0009791
0.391944
0.0012366
0.393991
0.00143371
0.395924
0.00156228
0.397398
0.00164281
0.398421
0.00169164
0.399095
0.00171987
0.399535
0.00173452
0.399815
0.00174036
0.399988
0.00174072
0.400089
0.00173785
0.400143
0.00173327
0.400166
0.00172796
0.40017
0.00172252
0.400163
0.00171733
0.400149
0.00171259
0.400132
0.00170838
0.400115
0.00170473
0.400098
0.00170162
0.400082
0.00169902
0.400068
0.00169686
0.400056
0.00169509
0.400045
0.00169365
0.400036
0.00169249
0.400029
0.00169157
0.400023
0.00169083
0.400018
0.00169026
0.400014
0.00168981
0.400011
0.00168945
0.400009
0.00168918
0.400007
0.00168897
0.400005
0.00168881
0.400004
0.00168869
0.400003
0.00168859
0.400002
0.00168852
0.400002
0.00168847
0.400001
0.00168843
0.400001
0.0016884
0.400001
0.00168838
0.400001
0.00168836
0.4
0.00168835
0.4
0.00168834
0.4
0.00168833
0.4
0.00168832
0.4
0.00168832
0.4
0.00168832
0.4
0.00168831
0.4
0.00168831
0.4
0.00168831
0.4
0.00168831
0.4
0.00168831
0.4
0.00168831
0.4
0.00168831
0.4
0.00168831
0.4
0.00168831
0.4
0.00168831
0.4
0.00168831
0.4
0.00168831
0.4
0.00168831
0.4
0.00168831
0.4
0.00168831
0.4
0.00168831
0.4
0.00168831
0.4
0.00168831
0.4
0.00168831
0.4
0.00168831
0.4
0.00168831
0.4
0.00168831
0.4
0.00168831
0.4
0.00168831
0.4
0.00168831
0.4
0.00168831
0.4
0.0016883
0.4
0.0016883
0.4
0.0016883
0.4
0.0016883
0.4
0.00168829
0.4
0.00168829
0.4
0.00168828
0.4
0.00168827
0.4
0.00168826
0.4
0.00168824
0.4
0.00168822
0.4
0.0016882
0.400001
0.00168817
0.400001
0.00168814
0.400001
0.00168811
0.400001
0.00168809
0.400001
0.00168809
0.400001
0.00168812
0.400001
0.00168824
0.4
0.00168848
0.399998
0.00168897
0.399995
0.00168987
0.399989
0.00169149
0.399979
0.00169436
0.399963
0.00169961
0.399937
0.00170921
0.399898
0.00172702
0.399842
0.39979
0.000821391
0.391733
0.00103845
0.393774
0.00120688
0.395755
0.00131747
0.397288
0.00138695
0.398351
0.00142922
0.399053
0.00145381
0.399511
0.00146671
0.399802
0.00147202
0.399983
0.00147257
0.400089
0.0014703
0.400145
0.00146653
0.40017
0.0014621
0.400174
0.00145754
0.400167
0.00145318
0.400153
0.00144917
0.400136
0.00144561
0.400118
0.00144252
0.400101
0.00143989
0.400084
0.00143768
0.40007
0.00143584
0.400057
0.00143434
0.400047
0.00143312
0.400038
0.00143213
0.40003
0.00143135
0.400024
0.00143072
0.400019
0.00143023
0.400015
0.00142985
0.400011
0.00142955
0.400009
0.00142931
0.400007
0.00142914
0.400005
0.001429
0.400004
0.00142889
0.400003
0.00142881
0.400002
0.00142875
0.400002
0.00142871
0.400001
0.00142867
0.400001
0.00142865
0.400001
0.00142863
0.400001
0.00142861
0.4
0.0014286
0.4
0.00142859
0.4
0.00142859
0.4
0.00142858
0.4
0.00142858
0.4
0.00142858
0.4
0.00142857
0.4
0.00142857
0.4
0.00142857
0.4
0.00142857
0.4
0.00142857
0.4
0.00142857
0.4
0.00142857
0.4
0.00142857
0.4
0.00142857
0.4
0.00142857
0.4
0.00142857
0.4
0.00142857
0.4
0.00142857
0.4
0.00142857
0.4
0.00142857
0.4
0.00142857
0.4
0.00142857
0.4
0.00142857
0.4
0.00142857
0.4
0.00142857
0.4
0.00142857
0.4
0.00142857
0.4
0.00142857
0.4
0.00142857
0.4
0.00142857
0.4
0.00142857
0.4
0.00142857
0.4
0.00142856
0.4
0.00142856
0.4
0.00142856
0.4
0.00142856
0.4
0.00142855
0.4
0.00142854
0.4
0.00142854
0.4
0.00142853
0.4
0.00142851
0.4
0.0014285
0.400001
0.00142848
0.400001
0.00142845
0.400001
0.00142843
0.400001
0.00142841
0.400001
0.00142839
0.400001
0.00142839
0.400001
0.00142842
0.400001
0.00142853
0.4
0.00142875
0.399998
0.00142919
0.399994
0.00142999
0.399988
0.00143143
0.399977
0.00143398
0.39996
0.00143866
0.399932
0.00144725
0.399889
0.00146316
0.399826
0.399765
0.00066743
0.391564
0.000844337
0.393597
0.00098319
0.395616
0.00107488
0.397196
0.00113264
0.398293
0.00116788
0.399017
0.00118848
0.39949
0.00119938
0.399791
0.00120396
0.399978
0.00120458
0.400088
0.00120284
0.400147
0.00119983
0.400173
0.00119625
0.400178
0.00119255
0.400171
0.00118899
0.400157
0.00118572
0.400139
0.00118281
0.400121
0.00118029
0.400103
0.00117813
0.400087
0.00117632
0.400072
0.00117481
0.400059
0.00117358
0.400048
0.00117257
0.400039
0.00117176
0.400031
0.00117112
0.400024
0.0011706
0.400019
0.0011702
0.400015
0.00116988
0.400012
0.00116964
0.400009
0.00116944
0.400007
0.0011693
0.400005
0.00116918
0.400004
0.0011691
0.400003
0.00116903
0.400002
0.00116898
0.400002
0.00116894
0.400001
0.00116891
0.400001
0.00116889
0.400001
0.00116888
0.400001
0.00116886
0.4
0.00116886
0.4
0.00116885
0.4
0.00116884
0.4
0.00116884
0.4
0.00116884
0.4
0.00116884
0.4
0.00116883
0.4
0.00116883
0.4
0.00116883
0.4
0.00116883
0.4
0.00116883
0.4
0.00116883
0.4
0.00116883
0.4
0.00116883
0.4
0.00116883
0.4
0.00116883
0.4
0.00116883
0.4
0.00116883
0.4
0.00116883
0.4
0.00116883
0.4
0.00116883
0.4
0.00116883
0.4
0.00116883
0.4
0.00116883
0.4
0.00116883
0.4
0.00116883
0.4
0.00116883
0.4
0.00116883
0.4
0.00116883
0.4
0.00116883
0.4
0.00116883
0.4
0.00116883
0.4
0.00116883
0.4
0.00116883
0.4
0.00116882
0.4
0.00116882
0.4
0.00116882
0.4
0.00116881
0.4
0.00116881
0.4
0.0011688
0.4
0.00116879
0.4
0.00116878
0.4
0.00116877
0.400001
0.00116875
0.400001
0.00116874
0.400001
0.00116872
0.400001
0.0011687
0.400001
0.00116868
0.400001
0.00116869
0.400001
0.00116872
0.400001
0.00116881
0.4
0.001169
0.399998
0.00116937
0.399994
0.00117006
0.399987
0.00117128
0.399976
0.00117346
0.399958
0.00117746
0.399928
0.00118481
0.399882
0.0011984
0.399812
0.399744
0.000516343
0.391434
0.00065345
0.39346
0.000762057
0.395508
0.000834114
0.397124
0.000879612
0.398248
0.00090742
0.39899
0.000923742
0.399474
0.000932439
0.399782
0.000936156
0.399974
0.000936743
0.400087
0.00093546
0.400148
0.000933162
0.400175
0.000930409
0.400181
0.00092755
0.400174
0.000924792
0.400159
0.000922253
0.400142
0.000919992
0.400123
0.000918025
0.400105
0.000916345
0.400088
0.000914933
0.400073
0.00091376
0.40006
0.000912797
0.400049
0.000912014
0.400039
0.000911383
0.400031
0.000910878
0.400025
0.000910478
0.40002
0.000910162
0.400015
0.000909914
0.400012
0.000909721
0.400009
0.000909571
0.400007
0.000909455
0.400005
0.000909367
0.400004
0.000909299
0.400003
0.000909247
0.400002
0.000909208
0.400002
0.000909178
0.400001
0.000909156
0.400001
0.000909139
0.400001
0.000909127
0.400001
0.000909117
0.4
0.00090911
0.4
0.000909105
0.4
0.000909101
0.4
0.000909098
0.4
0.000909096
0.4
0.000909094
0.4
0.000909093
0.4
0.000909092
0.4
0.000909092
0.4
0.000909091
0.4
0.000909091
0.4
0.00090909
0.4
0.00090909
0.4
0.00090909
0.4
0.00090909
0.4
0.00090909
0.4
0.00090909
0.4
0.00090909
0.4
0.00090909
0.4
0.00090909
0.4
0.00090909
0.4
0.000909089
0.4
0.00090909
0.4
0.000909089
0.4
0.000909089
0.4
0.000909089
0.4
0.000909089
0.4
0.000909089
0.4
0.000909089
0.4
0.000909089
0.4
0.000909088
0.4
0.000909088
0.4
0.000909087
0.4
0.000909086
0.4
0.000909085
0.4
0.000909083
0.4
0.000909081
0.4
0.000909077
0.4
0.000909073
0.4
0.000909068
0.4
0.000909062
0.4
0.000909053
0.4
0.000909043
0.400001