/*--------------------------------*- C++ -*----------------------------------*\
| =========                 |                                                 |
| \\      /  F ield         | OpenFOAM: The Open Source CFD Toolbox           |
|  \\    /   O peration     | Version:  v1906                                 |
|   \\  /    A nd           | Web:      www.OpenFOAM.com                      |
|    \\/     M anipulation  |                                                 |
\*---------------------------------------------------------------------------*/
FoamFile
{
    version     2.0;
    format      ascii;
    class       surfaceScalarField;
    location    "1";
    object      phiB;
}
// * * * * * * * * * * * * * * * * * * * * * * * * * * * * * * * * * * * * * //

dimensions      [1 2 -2 0 0 -1 0];
oriented        oriented;


internalField   nonuniform List<scalar> 
7860
(
0.00213761
0.799241
0.00250168
0.799636
0.00260272
0.799899
0.00261347
0.799989
0.00259316
0.80002
0.00256206
0.800031
0.00253571
0.800026
0.00251366
0.800022
0.00249831
0.800015
0.00248718
0.800011
0.00248002
0.800007
0.00247519
0.800005
0.00247224
0.800003
0.00247033
0.800002
0.00246921
0.800001
0.00246851
0.800001
0.00246811
0.8
0.00246786
0.8
0.00246772
0.8
0.00246764
0.8
0.00246759
0.8
0.00246757
0.8
0.00246755
0.8
0.00246754
0.8
0.00246754
0.8
0.00246753
0.8
0.00246753
0.8
0.00246753
0.8
0.00246753
0.8
0.00246753
0.8
0.00246753
0.8
0.00246753
0.8
0.00246753
0.8
0.00246753
0.8
0.00246753
0.8
0.00246753
0.8
0.00246753
0.8
0.00246753
0.8
0.00246753
0.8
0.00246753
0.8
0.00246753
0.8
0.00246753
0.8
0.00246753
0.8
0.00246753
0.8
0.00246753
0.8
0.00246753
0.8
0.00246753
0.8
0.00246753
0.8
0.00246753
0.8
0.00246753
0.8
0.00246753
0.8
0.00246753
0.8
0.00246753
0.8
0.00246753
0.8
0.00246753
0.8
0.00246753
0.8
0.00246753
0.8
0.00246753
0.8
0.00246753
0.8
0.00246753
0.8
0.00246753
0.8
0.00246753
0.8
0.00246753
0.8
0.00246753
0.8
0.00246753
0.8
0.00246753
0.8
0.00246753
0.8
0.00246753
0.8
0.00246753
0.8
0.00246753
0.8
0.00246753
0.8
0.00246753
0.8
0.00246753
0.8
0.00246753
0.8
0.00246753
0.8
0.00246753
0.8
0.00246753
0.8
0.00246753
0.8
0.00246753
0.8
0.00246753
0.8
0.00246753
0.8
0.00246753
0.8
0.00246753
0.8
0.00246753
0.8
0.00246753
0.8
0.00246753
0.8
0.00246753
0.8
0.00246752
0.8
0.00246752
0.8
0.0024675
0.8
0.00246748
0.8
0.00246744
0.8
0.00246739
0.8
0.00246731
0.8
0.00246721
0.8
0.00246716
0.8
0.00246716
0.8
0.00246771
0.799999
0.00246598
0.800002
0.800005
0.00343668
0.798095
0.00395716
0.799115
0.00410738
0.799749
0.00413273
0.799964
0.00410604
0.800047
0.00406724
0.80007
0.00403124
0.800062
0.00400233
0.800051
0.00398118
0.800037
0.00396634
0.800026
0.00395643
0.800017
0.00394994
0.800011
0.00394584
0.800007
0.00394326
0.800004
0.0039417
0.800003
0.00394075
0.800002
0.00394018
0.800001
0.00393985
0.800001
0.00393966
0.8
0.00393954
0.8
0.00393948
0.8
0.00393944
0.8
0.00393942
0.8
0.00393941
0.8
0.0039394
0.8
0.0039394
0.8
0.0039394
0.8
0.00393939
0.8
0.00393939
0.8
0.00393939
0.8
0.00393939
0.8
0.00393939
0.8
0.00393939
0.8
0.00393939
0.8
0.00393939
0.8
0.00393939
0.8
0.00393939
0.8
0.00393939
0.8
0.00393939
0.8
0.00393939
0.8
0.00393939
0.8
0.00393939
0.8
0.00393939
0.8
0.00393939
0.8
0.00393939
0.8
0.00393939
0.8
0.00393939
0.8
0.00393939
0.8
0.00393939
0.8
0.00393939
0.8
0.00393939
0.8
0.00393939
0.8
0.00393939
0.8
0.00393939
0.8
0.00393939
0.8
0.00393939
0.8
0.00393939
0.8
0.00393939
0.8
0.00393939
0.8
0.00393939
0.8
0.00393939
0.8
0.00393939
0.8
0.00393939
0.8
0.00393939
0.8
0.00393939
0.8
0.00393939
0.8
0.00393939
0.8
0.00393939
0.8
0.00393939
0.8
0.00393939
0.8
0.00393939
0.8
0.00393939
0.8
0.00393939
0.8
0.00393939
0.8
0.00393939
0.8
0.00393939
0.8
0.00393939
0.8
0.00393939
0.8
0.00393939
0.8
0.00393939
0.8
0.00393939
0.8
0.00393939
0.8
0.00393939
0.8
0.00393939
0.8
0.00393939
0.8
0.00393939
0.8
0.00393939
0.8
0.00393938
0.8
0.00393937
0.8
0.00393935
0.8
0.00393932
0.8
0.00393927
0.8
0.0039392
0.8
0.0039391
0.8
0.00393898
0.8
0.00393896
0.8
0.0039391
0.8
0.00394011
0.799998
0.0039383
0.800004
0.800011
0.0037173
0.796893
0.00424103
0.798592
0.00440076
0.799589
0.00443661
0.799928
0.00441274
0.800071
0.00437901
0.800104
0.0043444
0.800097
0.00431763
0.800078
0.00429705
0.800057
0.00428305
0.80004
0.00427335
0.800027
0.00426716
0.800018
0.00426312
0.800011
0.00426065
0.800007
0.0042591
0.800004
0.00425819
0.800003
0.00425762
0.800002
0.0042573
0.800001
0.00425711
0.800001
0.004257
0.8
0.00425694
0.8
0.0042569
0.8
0.00425688
0.8
0.00425687
0.8
0.00425686
0.8
0.00425686
0.8
0.00425686
0.8
0.00425685
0.8
0.00425685
0.8
0.00425685
0.8
0.00425685
0.8
0.00425685
0.8
0.00425685
0.8
0.00425685
0.8
0.00425685
0.8
0.00425685
0.8
0.00425685
0.8
0.00425685
0.8
0.00425685
0.8
0.00425685
0.8
0.00425685
0.8
0.00425685
0.8
0.00425685
0.8
0.00425685
0.8
0.00425685
0.8
0.00425685
0.8
0.00425685
0.8
0.00425685
0.8
0.00425685
0.8
0.00425685
0.8
0.00425685
0.8
0.00425685
0.8
0.00425685
0.8
0.00425685
0.8
0.00425685
0.8
0.00425685
0.8
0.00425685
0.8
0.00425685
0.8
0.00425685
0.8
0.00425685
0.8
0.00425685
0.8
0.00425685
0.8
0.00425685
0.8
0.00425685
0.8
0.00425685
0.8
0.00425685
0.8
0.00425685
0.8
0.00425685
0.8
0.00425685
0.8
0.00425685
0.8
0.00425685
0.8
0.00425685
0.8
0.00425685
0.8
0.00425685
0.8
0.00425685
0.8
0.00425685
0.8
0.00425685
0.8
0.00425685
0.8
0.00425685
0.8
0.00425685
0.8
0.00425685
0.8
0.00425685
0.8
0.00425685
0.8
0.00425685
0.8
0.00425685
0.8
0.00425685
0.8
0.00425685
0.8
0.00425684
0.8
0.00425683
0.8
0.00425681
0.8
0.00425678
0.8
0.00425674
0.8
0.00425667
0.8
0.00425658
0.8
0.00425649
0.8
0.00425654
0.8
0.00425686
0.8
0.00425823
0.799997
0.00425828
0.800003
0.800013
0.00362833
0.795688
0.0041426
0.798077
0.00431104
0.799421
0.00435416
0.799885
0.00433437
0.800091
0.00430489
0.800133
0.00427238
0.800129
0.00424755
0.800103
0.00422791
0.800077
0.0042147
0.800053
0.00420536
0.800036
0.00419947
0.800023
0.00419556
0.800015
0.0041932
0.800009
0.00419169
0.800006
0.00419081
0.800003
0.00419026
0.800002
0.00418995
0.800001
0.00418976
0.800001
0.00418966
0.8
0.00418959
0.8
0.00418956
0.8
0.00418954
0.8
0.00418953
0.8
0.00418952
0.8
0.00418952
0.8
0.00418952
0.8
0.00418951
0.8
0.00418951
0.8
0.00418951
0.8
0.00418951
0.8
0.00418951
0.8
0.00418951
0.8
0.00418951
0.8
0.00418951
0.8
0.00418951
0.8
0.00418951
0.8
0.00418951
0.8
0.00418951
0.8
0.00418951
0.8
0.00418951
0.8
0.00418951
0.8
0.00418951
0.8
0.00418951
0.8
0.00418951
0.8
0.00418951
0.8
0.00418951
0.8
0.00418951
0.8
0.00418951
0.8
0.00418951
0.8
0.00418951
0.8
0.00418951
0.8
0.00418951
0.8
0.00418951
0.8
0.00418951
0.8
0.00418951
0.8
0.00418951
0.8
0.00418951
0.8
0.00418951
0.8
0.00418951
0.8
0.00418951
0.8
0.00418951
0.8
0.00418951
0.8
0.00418951
0.8
0.00418951
0.8
0.00418951
0.8
0.00418951
0.8
0.00418951
0.8
0.00418951
0.8
0.00418951
0.8
0.00418951
0.8
0.00418951
0.8
0.00418951
0.8
0.00418951
0.8
0.00418951
0.8
0.00418951
0.8
0.00418951
0.8
0.00418951
0.8
0.00418951
0.8
0.00418951
0.8
0.00418951
0.8
0.00418951
0.8
0.00418951
0.8
0.00418951
0.8
0.00418951
0.8
0.00418951
0.8
0.00418951
0.8
0.0041895
0.8
0.00418949
0.8
0.00418947
0.8
0.00418945
0.8
0.0041894
0.8
0.00418934
0.8
0.00418926
0.8
0.00418921
0.8
0.00418932
0.8
0.00418983
0.799999
0.0041916
0.799995
0.00419415
0.800001
0.80001
0.0034207
0.794513
0.0039212
0.797577
0.00409505
0.799247
0.00414357
0.799836
0.00412784
0.800106
0.00410219
0.800159
0.00407192
0.80016
0.00404897
0.800126
0.00403036
0.800095
0.00401796
0.800066
0.00400904
0.800045
0.00400346
0.800029
0.0039997
0.800019
0.00399746
0.800012
0.003996
0.800007
0.00399516
0.800004
0.00399463
0.800003
0.00399433
0.800002
0.00399415
0.800001
0.00399405
0.800001
0.00399398
0.8
0.00399395
0.8
0.00399393
0.8
0.00399392
0.8
0.00399391
0.8
0.00399391
0.8
0.00399391
0.8
0.00399391
0.8
0.00399391
0.8
0.00399391
0.8
0.00399391
0.8
0.00399391
0.8
0.00399391
0.8
0.00399391
0.8
0.00399391
0.8
0.00399391
0.8
0.00399391
0.8
0.00399391
0.8
0.00399391
0.8
0.00399391
0.8
0.00399391
0.8
0.00399391
0.8
0.00399391
0.8
0.00399391
0.8
0.00399391
0.8
0.00399391
0.8
0.00399391
0.8
0.00399391
0.8
0.00399391
0.8
0.00399391
0.8
0.00399391
0.8
0.00399391
0.8
0.00399391
0.8
0.00399391
0.8
0.00399391
0.8
0.00399391
0.8
0.00399391
0.8
0.00399391
0.8
0.00399391
0.8
0.00399391
0.8
0.00399391
0.8
0.00399391
0.8
0.00399391
0.8
0.00399391
0.8
0.00399391
0.8
0.00399391
0.8
0.00399391
0.8
0.00399391
0.8
0.00399391
0.8
0.00399391
0.8
0.00399391
0.8
0.00399391
0.8
0.00399391
0.8
0.00399391
0.8
0.00399391
0.8
0.00399391
0.8
0.00399391
0.8
0.00399391
0.8
0.00399391
0.8
0.00399391
0.8
0.00399391
0.8
0.00399391
0.8
0.00399391
0.8
0.00399391
0.8
0.00399391
0.8
0.0039939
0.8
0.0039939
0.8
0.00399389
0.8
0.00399388
0.8
0.00399387
0.8
0.00399384
0.8
0.0039938
0.8
0.00399375
0.8
0.00399368
0.8
0.00399366
0.8
0.00399382
0.8
0.00399453
0.799998
0.00399668
0.799993
0.0040017
0.799996
0.800002
0.00317836
0.793389
0.00366264
0.797093
0.00383841
0.799071
0.00389086
0.799784
0.0038788
0.800118
0.00385664
0.800181
0.00382863
0.800188
0.0038075
0.800147
0.00378998
0.800113
0.00377838
0.800077
0.00376991
0.800054
0.00376466
0.800034
0.00376107
0.800022
0.00375894
0.800014
0.00375755
0.800009
0.00375675
0.800005
0.00375624
0.800003
0.00375595
0.800002
0.00375578
0.800001
0.00375568
0.800001
0.00375562
0.8
0.00375559
0.8
0.00375557
0.8
0.00375556
0.8
0.00375555
0.8
0.00375555
0.8
0.00375555
0.8
0.00375554
0.8
0.00375554
0.8
0.00375554
0.8
0.00375554
0.8
0.00375554
0.8
0.00375554
0.8
0.00375554
0.8
0.00375554
0.8
0.00375554
0.8
0.00375554
0.8
0.00375554
0.8
0.00375554
0.8
0.00375554
0.8
0.00375554
0.8
0.00375554
0.8
0.00375554
0.8
0.00375554
0.8
0.00375554
0.8
0.00375554
0.8
0.00375554
0.8
0.00375554
0.8
0.00375554
0.8
0.00375554
0.8
0.00375554
0.8
0.00375554
0.8
0.00375554
0.8
0.00375554
0.8
0.00375554
0.8
0.00375554
0.8
0.00375554
0.8
0.00375554
0.8
0.00375554
0.8
0.00375554
0.8
0.00375554
0.8
0.00375554
0.8
0.00375554
0.8
0.00375554
0.8
0.00375554
0.8
0.00375554
0.8
0.00375554
0.8
0.00375554
0.8
0.00375554
0.8
0.00375554
0.8
0.00375554
0.8
0.00375554
0.8
0.00375554
0.8
0.00375554
0.8
0.00375554
0.8
0.00375554
0.8
0.00375554
0.8
0.00375554
0.8
0.00375554
0.8
0.00375554
0.8
0.00375554
0.8
0.00375554
0.8
0.00375554
0.8
0.00375554
0.8
0.00375554
0.8
0.00375554
0.8
0.00375554
0.8
0.00375553
0.8
0.00375552
0.8
0.00375551
0.8
0.00375548
0.8
0.00375545
0.8
0.0037554
0.8
0.00375535
0.8
0.00375535
0.8
0.00375557
0.8
0.00375644
0.799997
0.00375895
0.799991
0.00376607
0.799989
0.799991
0.00292938
0.792326
0.00339509
0.796627
0.00356966
0.798896
0.00362468
0.799729
0.00361582
0.800127
0.00359683
0.8002
0.00357103
0.800214
0.00355167
0.800166
0.00353527
0.800129
0.00352448
0.800088
0.00351649
0.800061
0.00351157
0.800039
0.00350817
0.800026
0.00350616
0.800016
0.00350483
0.80001
0.00350408
0.800006
0.00350359
0.800004
0.00350332
0.800002
0.00350315
0.800001
0.00350306
0.800001
0.003503
0.8
0.00350297
0.8
0.00350295
0.8
0.00350294
0.8
0.00350294
0.8
0.00350293
0.8
0.00350293
0.8
0.00350293
0.8
0.00350293
0.8
0.00350293
0.8
0.00350293
0.8
0.00350293
0.8
0.00350293
0.8
0.00350293
0.8
0.00350293
0.8
0.00350293
0.8
0.00350293
0.8
0.00350293
0.8
0.00350293
0.8
0.00350293
0.8
0.00350293
0.8
0.00350293
0.8
0.00350293
0.8
0.00350293
0.8
0.00350293
0.8
0.00350293
0.8
0.00350293
0.8
0.00350293
0.8
0.00350293
0.8
0.00350293
0.8
0.00350293
0.8
0.00350293
0.8
0.00350293
0.8
0.00350293
0.8
0.00350293
0.8
0.00350293
0.8
0.00350293
0.8
0.00350293
0.8
0.00350293
0.8
0.00350293
0.8
0.00350293
0.8
0.00350293
0.8
0.00350293
0.8
0.00350293
0.8
0.00350293
0.8
0.00350293
0.8
0.00350293
0.8
0.00350293
0.8
0.00350293
0.8
0.00350293
0.8
0.00350293
0.8
0.00350293
0.8
0.00350293
0.8
0.00350293
0.8
0.00350293
0.8
0.00350293
0.8
0.00350293
0.8
0.00350293
0.8
0.00350293
0.8
0.00350293
0.8
0.00350293
0.8
0.00350293
0.8
0.00350293
0.8
0.00350293
0.8
0.00350293
0.8
0.00350293
0.8
0.00350292
0.8
0.00350292
0.8
0.00350291
0.8
0.0035029
0.8
0.00350287
0.8
0.00350284
0.8
0.00350279
0.8
0.00350276
0.8
0.00350279
0.8
0.00350305
0.799999
0.00350408
0.799996
0.00350687
0.799988
0.00351566
0.79998
0.799976
0.002683
0.791335
0.0031276
0.796182
0.00329827
0.798726
0.00335456
0.799673
0.00334841
0.800133
0.00333229
0.800216
0.00330866
0.800237
0.00329101
0.800184
0.00327574
0.800145
0.00326576
0.800098
0.00325828
0.800069
0.00325369
0.800044
0.00325049
0.800029
0.00324862
0.800018
0.00324736
0.800011
0.00324665
0.800007
0.00324619
0.800004
0.00324594
0.800002
0.00324577
0.800001
0.00324569
0.800001
0.00324563
0.8
0.0032456
0.8
0.00324559
0.8
0.00324558
0.8
0.00324557
0.8
0.00324557
0.8
0.00324557
0.8
0.00324557
0.8
0.00324557
0.8
0.00324556
0.8
0.00324556
0.8
0.00324556
0.8
0.00324556
0.8
0.00324556
0.8
0.00324556
0.8
0.00324556
0.8
0.00324556
0.8
0.00324556
0.8
0.00324556
0.8
0.00324556
0.8
0.00324556
0.8
0.00324556
0.8
0.00324556
0.8
0.00324556
0.8
0.00324556
0.8
0.00324556
0.8
0.00324556
0.8
0.00324556
0.8
0.00324556
0.8
0.00324556
0.8
0.00324556
0.8
0.00324556
0.8
0.00324556
0.8
0.00324556
0.8
0.00324557
0.8
0.00324556
0.8
0.00324557
0.8
0.00324557
0.8
0.00324557
0.8
0.00324557
0.8
0.00324557
0.8
0.00324557
0.8
0.00324557
0.8
0.00324557
0.8
0.00324557
0.8
0.00324557
0.8
0.00324557
0.8
0.00324557
0.8
0.00324557
0.8
0.00324557
0.8
0.00324557
0.8
0.00324557
0.8
0.00324557
0.8
0.00324557
0.8
0.00324557
0.8
0.00324557
0.8
0.00324557
0.8
0.00324557
0.8
0.00324557
0.8
0.00324557
0.8
0.00324557
0.8
0.00324557
0.8
0.00324557
0.8
0.00324556
0.8
0.00324556
0.8
0.00324556
0.8
0.00324556
0.8
0.00324555
0.8
0.00324555
0.8
0.00324553
0.8
0.00324551
0.8
0.00324548
0.8
0.00324544
0.8
0.00324541
0.800001
0.00324547
0.8
0.00324577
0.799999
0.00324692
0.799995
0.00324994
0.799985
0.00325995
0.79997
0.799959
0.00244208
0.790419
0.00286284
0.795762
0.00302731
0.798561
0.00308364
0.799616
0.00307976
0.800137
0.00306619
0.80023
0.00304467
0.800259
0.00302869
0.8002
0.00301458
0.800159
0.00300541
0.800107
0.00299845
0.800076
0.00299421
0.800048
0.00299122
0.800032
0.00298947
0.800019
0.0029883
0.800012
0.00298764
0.800007
0.0029872
0.800004
0.00298697
0.800003
0.00298681
0.800002
0.00298673
0.800001
0.00298668
0.800001
0.00298665
0.8
0.00298664
0.8
0.00298663
0.8
0.00298662
0.8
0.00298662
0.8
0.00298662
0.8
0.00298662
0.8
0.00298662
0.8
0.00298662
0.8
0.00298662
0.8
0.00298662
0.8
0.00298662
0.8
0.00298662
0.8
0.00298662
0.8
0.00298662
0.8
0.00298662
0.8
0.00298662
0.8
0.00298662
0.8
0.00298662
0.8
0.00298662
0.8
0.00298662
0.8
0.00298662
0.8
0.00298662
0.8
0.00298662
0.8
0.00298662
0.8
0.00298662
0.8
0.00298662
0.8
0.00298662
0.8
0.00298662
0.8
0.00298662
0.8
0.00298662
0.8
0.00298662
0.8
0.00298662
0.8
0.00298662
0.8
0.00298662
0.8
0.00298662
0.8
0.00298662
0.8
0.00298662
0.8
0.00298662
0.8
0.00298662
0.8
0.00298662
0.8
0.00298662
0.8
0.00298662
0.8
0.00298662
0.8
0.00298662
0.8
0.00298662
0.8
0.00298662
0.8
0.00298662
0.8
0.00298662
0.8
0.00298662
0.8
0.00298662
0.8
0.00298662
0.8
0.00298662
0.8
0.00298662
0.8
0.00298662
0.8
0.00298662
0.8
0.00298662
0.8
0.00298662
0.8
0.00298662
0.8
0.00298662
0.8
0.00298662
0.8
0.00298662
0.8
0.00298662
0.8
0.00298662
0.8
0.00298661
0.8
0.00298661
0.8
0.00298661
0.8
0.0029866
0.8
0.00298659
0.8
0.00298657
0.8
0.00298654
0.8
0.00298651
0.8
0.00298649
0.800001
0.00298656
0.8
0.00298688
0.799999
0.00298813
0.799994
0.00299129
0.799982
0.0030021
0.799959
0.79994
0.00220728
0.789583
0.00260145
0.795367
0.00275772
0.798405
0.00281295
0.799561
0.00281092
0.800139
0.0027996
0.800241
0.00278015
0.800278
0.00276577
0.800214
0.00275283
0.800172
0.00274448
0.800115
0.00273806
0.800082
0.00273417
0.800052
0.0027314
0.800035
0.00272979
0.800021
0.0027287
0.800013
0.00272809
0.800008
0.00272768
0.800005
0.00272747
0.800003
0.00272732
0.800002
0.00272725
0.800001
0.0027272
0.800001
0.00272717
0.8
0.00272716
0.8
0.00272715
0.8
0.00272715
0.8
0.00272714
0.8
0.00272714
0.8
0.00272714
0.8
0.00272714
0.8
0.00272714
0.8
0.00272714
0.8
0.00272714
0.8
0.00272714
0.8
0.00272714
0.8
0.00272714
0.8
0.00272714
0.8
0.00272714
0.8
0.00272714
0.8
0.00272714
0.8
0.00272714
0.8
0.00272714
0.8
0.00272714
0.8
0.00272714
0.8
0.00272714
0.8
0.00272714
0.8
0.00272714
0.8
0.00272714
0.8
0.00272714
0.8
0.00272714
0.8
0.00272714
0.8
0.00272714
0.8
0.00272714
0.8
0.00272714
0.8
0.00272714
0.8
0.00272714
0.8
0.00272714
0.8
0.00272714
0.8
0.00272714
0.8
0.00272714
0.8
0.00272714
0.8
0.00272714
0.8
0.00272714
0.8
0.00272714
0.8
0.00272714
0.8
0.00272714
0.8
0.00272714
0.8
0.00272714
0.8
0.00272714
0.8
0.00272714
0.8
0.00272714
0.8
0.00272714
0.8
0.00272714
0.8
0.00272714
0.8
0.00272714
0.8
0.00272714
0.8
0.00272714
0.8
0.00272714
0.8
0.00272714
0.8
0.00272714
0.8
0.00272714
0.8
0.00272714
0.8
0.00272714
0.8
0.00272714
0.8
0.00272714
0.8
0.00272714
0.8
0.00272714
0.8
0.00272714
0.8
0.00272713
0.8
0.00272712
0.8
0.00272711
0.8
0.0027271
0.8
0.00272707
0.8
0.00272704
0.800001
0.00272703
0.800001
0.00272711
0.8
0.00272746
0.799998
0.00272876
0.799993
0.00273198
0.799978
0.0027432
0.799948
0.799919
0.00197848
0.788827
0.00234338
0.795003
0.00248972
0.798259
0.00254281
0.799508
0.00254222
0.80014
0.00253287
0.80025
0.00251544
0.800296
0.00250261
0.800227
0.00249087
0.800183
0.00248332
0.800123
0.00247746
0.800088
0.00247392
0.800055
0.00247139
0.800037
0.00246992
0.800022
0.00246892
0.800014
0.00246836
0.800008
0.00246799
0.800005
0.00246779
0.800003
0.00246766
0.800002
0.00246759
0.800001
0.00246754
0.800001
0.00246752
0.8
0.00246751
0.8
0.0024675
0.8
0.00246749
0.8
0.00246749
0.8
0.00246749
0.8
0.00246749
0.8
0.00246749
0.8
0.00246749
0.8
0.00246749
0.8
0.00246749
0.8
0.00246749
0.8
0.00246749
0.8
0.00246749
0.8
0.00246749
0.8
0.00246749
0.8
0.00246749
0.8
0.00246749
0.8
0.00246749
0.8
0.00246749
0.8
0.00246749
0.8
0.00246749
0.8
0.00246749
0.8
0.00246749
0.8
0.00246749
0.8
0.00246749
0.8
0.00246749
0.8
0.00246749
0.8
0.00246749
0.8
0.00246749
0.8
0.00246749
0.8
0.00246749
0.8
0.00246749
0.8
0.00246749
0.8
0.00246749
0.8
0.00246749
0.8
0.00246749
0.8
0.00246749
0.8
0.00246749
0.8
0.00246749
0.8
0.00246749
0.8
0.00246749
0.8
0.00246749
0.8
0.00246749
0.8
0.00246749
0.8
0.00246749
0.8
0.00246749
0.8
0.00246749
0.8
0.00246749
0.8
0.00246749
0.8
0.00246749
0.8
0.00246749
0.8
0.00246749
0.8
0.00246749
0.8
0.00246749
0.8
0.00246749
0.8
0.00246749
0.8
0.00246749
0.8
0.00246749
0.8
0.00246749
0.8
0.00246749
0.8
0.00246749
0.8
0.00246749
0.8
0.00246749
0.8
0.00246749
0.8
0.00246748
0.8
0.00246748
0.8
0.00246747
0.8
0.00246746
0.8
0.00246745
0.8
0.00246742
0.8
0.0024674
0.800001
0.0024674
0.800001
0.00246749
0.8
0.00246784
0.799998
0.00246916
0.799991
0.00247236
0.799975
0.00248363
0.799937
0.799899
0.00175525
0.788153
0.00208838
0.794669
0.00222327
0.798124
0.00227327
0.799458
0.00227377
0.800139
0.00226613
0.800258
0.00225067
0.800311
0.00223934
0.800238
0.0022288
0.800194
0.00222206
0.80013
0.00221677
0.800093
0.0022136
0.800059
0.0022113
0.80004
0.00220998
0.800024
0.00220907
0.800015
0.00220857
0.800009
0.00220823
0.800006
0.00220805
0.800003
0.00220793
0.800002
0.00220787
0.800001
0.00220783
0.800001
0.00220781
0.8
0.00220779
0.8
0.00220779
0.8
0.00220778
0.8
0.00220778
0.8
0.00220778
0.8
0.00220778
0.8
0.00220778
0.8
0.00220778
0.8
0.00220778
0.8
0.00220778
0.8
0.00220778
0.8
0.00220778
0.8
0.00220778
0.8
0.00220778
0.8
0.00220778
0.8
0.00220778
0.8
0.00220778
0.8
0.00220778
0.8
0.00220778
0.8
0.00220778
0.8
0.00220778
0.8
0.00220778
0.8
0.00220778
0.8
0.00220778
0.8
0.00220778
0.8
0.00220778
0.8
0.00220778
0.8
0.00220778
0.8
0.00220778
0.8
0.00220778
0.8
0.00220778
0.8
0.00220778
0.8
0.00220778
0.8
0.00220778
0.8
0.00220778
0.8
0.00220778
0.8
0.00220778
0.8
0.00220778
0.8
0.00220778
0.8
0.00220778
0.8
0.00220778
0.8
0.00220778
0.8
0.00220778
0.8
0.00220778
0.8
0.00220778
0.8
0.00220778
0.8
0.00220778
0.8
0.00220778
0.8
0.00220778
0.8
0.00220778
0.8
0.00220778
0.8
0.00220778
0.8
0.00220778
0.8
0.00220778
0.8
0.00220778
0.8
0.00220778
0.8
0.00220778
0.8
0.00220778
0.8
0.00220778
0.8
0.00220778
0.8
0.00220778
0.8
0.00220778
0.8
0.00220778
0.8
0.00220778
0.8
0.00220777
0.8
0.00220777
0.8
0.00220776
0.8
0.00220775
0.8
0.00220774
0.8
0.00220772
0.8
0.0022077
0.800001
0.0022077
0.800001
0.0022078
0.8
0.00220815
0.799998
0.00220944
0.79999
0.00221255
0.799972
0.00222354
0.799926
0.799878
0.00153704
0.787561
0.00183616
0.79437
0.00195826
0.798002
0.00200432
0.799412
0.00200558
0.800138
0.0019994
0.800264
0.00198589
0.800324
0.001976
0.800248
0.00196668
0.800203
0.00196074
0.800136
0.00195605
0.800098
0.00195323
0.800061
0.00195119
0.800042
0.00195002
0.800025
0.0019492
0.800016
0.00194876
0.800009
0.00194845
0.800006
0.00194829
0.800003
0.00194818
0.800002
0.00194813
0.800001
0.00194809
0.800001
0.00194807
0.8
0.00194806
0.8
0.00194805
0.8
0.00194805
0.8
0.00194805
0.8
0.00194805
0.8
0.00194805
0.8
0.00194805
0.8
0.00194805
0.8
0.00194805
0.8
0.00194805
0.8
0.00194805
0.8
0.00194805
0.8
0.00194805
0.8
0.00194805
0.8
0.00194805
0.8
0.00194805
0.8
0.00194805
0.8
0.00194805
0.8
0.00194805
0.8
0.00194805
0.8
0.00194805
0.8
0.00194805
0.8
0.00194805
0.8
0.00194805
0.8
0.00194805
0.8
0.00194805
0.8
0.00194805
0.8
0.00194805
0.8
0.00194805
0.8
0.00194805
0.8
0.00194805
0.8
0.00194805
0.8
0.00194805
0.8
0.00194805
0.8
0.00194805
0.8
0.00194805
0.8
0.00194805
0.8
0.00194805
0.8
0.00194805
0.8
0.00194805
0.8
0.00194805
0.8
0.00194805
0.8
0.00194805
0.8
0.00194805
0.8
0.00194805
0.8
0.00194805
0.8
0.00194805
0.8
0.00194805
0.8
0.00194805
0.8
0.00194805
0.8
0.00194805
0.8
0.00194805
0.8
0.00194805
0.8
0.00194805
0.8
0.00194805
0.8
0.00194805
0.8
0.00194805
0.8
0.00194805
0.8
0.00194805
0.8
0.00194805
0.8
0.00194805
0.8
0.00194805
0.8
0.00194805
0.8
0.00194805
0.8
0.00194804
0.8
0.00194804
0.8
0.00194804
0.8
0.00194803
0.8
0.00194801
0.8
0.001948
0.8
0.00194798
0.800001
0.00194798
0.800001
0.00194808
0.8
0.00194842
0.799997
0.00194966
0.799989
0.0019526
0.799969
0.001963
0.799915
0.799859
0.00132325
0.787049
0.00158638
0.794107
0.00169453
0.797894
0.00173592
0.799371
0.00173764
0.800136
0.00173271
0.800269
0.0017211
0.800336
0.00171262
0.800257
0.00170452
0.800211
0.00169937
0.800141
0.00169529
0.800102
0.00169284
0.800064
0.00169106
0.800043
0.00169003
0.800026
0.00168932
0.800017
0.00168893
0.80001
0.00168867
0.800006
0.00168852
0.800003
0.00168843
0.800002
0.00168838
0.800001
0.00168835
0.800001
0.00168833
0.8
0.00168832
0.8
0.00168832
0.8
0.00168831
0.8
0.00168831
0.8
0.00168831
0.8
0.00168831
0.8
0.00168831
0.8
0.00168831
0.8
0.00168831
0.8
0.00168831
0.8
0.00168831
0.8
0.00168831
0.8
0.00168831
0.8
0.00168831
0.8
0.00168831
0.8
0.00168831
0.8
0.00168831
0.8
0.00168831
0.8
0.00168831
0.8
0.00168831
0.8
0.00168831
0.8
0.00168831
0.8
0.00168831
0.8
0.00168831
0.8
0.00168831
0.8
0.00168831
0.8
0.00168831
0.8
0.00168831
0.8
0.00168831
0.8
0.00168831
0.8
0.00168831
0.8
0.00168831
0.8
0.00168831
0.8
0.00168831
0.8
0.00168831
0.8
0.00168831
0.8
0.00168831
0.8
0.00168831
0.8
0.00168831
0.8
0.00168831
0.8
0.00168831
0.8
0.00168831
0.8
0.00168831
0.8
0.00168831
0.8
0.00168831
0.8
0.00168831
0.8
0.00168831
0.8
0.00168831
0.8
0.00168831
0.8
0.00168831
0.8
0.00168831
0.8
0.00168831
0.8
0.00168831
0.8
0.00168831
0.8
0.00168831
0.8
0.00168831
0.8
0.00168831
0.8
0.00168831
0.8
0.00168831
0.8
0.00168831
0.8
0.00168831
0.8
0.00168831
0.8
0.00168831
0.8
0.00168831
0.8
0.00168831
0.8
0.0016883
0.8
0.0016883
0.8
0.00168829
0.8
0.00168828
0.8
0.00168827
0.8
0.00168825
0.800001
0.00168826
0.800001
0.00168836
0.8
0.00168867
0.799997
0.00168982
0.799988
0.00169251
0.799966
0.00170208
0.799906
0.799841
0.00111329
0.786618
0.00133872
0.793882
0.00143192
0.7978
0.001468
0.799334
0.00146992
0.800135
0.00146606
0.800273
0.0014563
0.800346
0.00144919
0.800264
0.00144233
0.800218
0.00143798
0.800145
0.00143451
0.800106
0.00143243
0.800066
0.00143091
0.800045
0.00143004
0.800027
0.00142944
0.800017
0.0014291
0.80001
0.00142887
0.800006
0.00142875
0.800004
0.00142867
0.800002
0.00142863
0.800001
0.0014286
0.800001
0.00142859
0.8
0.00142858
0.8
0.00142858
0.8
0.00142857
0.8
0.00142857
0.8
0.00142857
0.8
0.00142857
0.8
0.00142857
0.8
0.00142857
0.8
0.00142857
0.8
0.00142857
0.8
0.00142857
0.8
0.00142857
0.8
0.00142857
0.8
0.00142857
0.8
0.00142857
0.8
0.00142857
0.8
0.00142857
0.8
0.00142857
0.8
0.00142857
0.8
0.00142857
0.8
0.00142857
0.8
0.00142857
0.8
0.00142857
0.8
0.00142857
0.8
0.00142857
0.8
0.00142857
0.8
0.00142857
0.8
0.00142857
0.8
0.00142857
0.8
0.00142857
0.8
0.00142857
0.8
0.00142857
0.8
0.00142857
0.8
0.00142857
0.8
0.00142857
0.8
0.00142857
0.8
0.00142857
0.8
0.00142857
0.8
0.00142857
0.8
0.00142857
0.8
0.00142857
0.8
0.00142857
0.8
0.00142857
0.8
0.00142857
0.8
0.00142857
0.8
0.00142857
0.8
0.00142857
0.8
0.00142857
0.8
0.00142857
0.8
0.00142857
0.8
0.00142857
0.8
0.00142857
0.8
0.00142857
0.8
0.00142857
0.8
0.00142857
0.8
0.00142857
0.8
0.00142857
0.8
0.00142857
0.8
0.00142857
0.8
0.00142857
0.8
0.00142857
0.8
0.00142857
0.8
0.00142857
0.8
0.00142857
0.8
0.00142857
0.8
0.00142857
0.8
0.00142856
0.8
0.00142856
0.8
0.00142855
0.8
0.00142853
0.8
0.00142853
0.800001
0.00142853
0.800001
0.00142862
0.8
0.0014289
0.799997
0.00142993
0.799987
0.00143232
0.799964
0.00144081
0.799897
0.799825
0.00090654
0.786267
0.00109286
0.793695
0.00117027
0.797723
0.00120051
0.799304
0.00120239
0.800133
0.00119945
0.800276
0.00119152
0.800354
0.00118574
0.800269
0.00118012
0.800224
0.00117656
0.800149
0.00117371
0.800109
0.00117201
0.800068
0.00117076
0.800046
0.00117004
0.800027
0.00116954
0.800018
0.00116927
0.80001
0.00116908
0.800007
0.00116898
0.800004
0.00116892
0.800002
0.00116888
0.800001
0.00116886
0.800001
0.00116885
0.8
0.00116884
0.8
0.00116884
0.8
0.00116883
0.8
0.00116883
0.8
0.00116883
0.8
0.00116883
0.8
0.00116883
0.8
0.00116883
0.8
0.00116883
0.8
0.00116883
0.8
0.00116883
0.8
0.00116883
0.8
0.00116883
0.8
0.00116883
0.8
0.00116883
0.8
0.00116883
0.8
0.00116883
0.8
0.00116883
0.8
0.00116883
0.8
0.00116883
0.8
0.00116883
0.8
0.00116883
0.8
0.00116883
0.8
0.00116883
0.8
0.00116883
0.8
0.00116883
0.8
0.00116883
0.8
0.00116883
0.8
0.00116883
0.8
0.00116883
0.8
0.00116883
0.8
0.00116883
0.8
0.00116883
0.8
0.00116883
0.8
0.00116883
0.8
0.00116883
0.8
0.00116883
0.8
0.00116883
0.8
0.00116883
0.8
0.00116883
0.8
0.00116883
0.8
0.00116883
0.8
0.00116883
0.8
0.00116883
0.8
0.00116883
0.8
0.00116883
0.8
0.00116883
0.8
0.00116883
0.8
0.00116883
0.8
0.00116883
0.8
0.00116883
0.8
0.00116883
0.8
0.00116883
0.8
0.00116883
0.8
0.00116883
0.8
0.00116883
0.8
0.00116883
0.8
0.00116883
0.8
0.00116883
0.8
0.00116883
0.8
0.00116883
0.8
0.00116883
0.8
0.00116883
0.8
0.00116883
0.8
0.00116883
0.8
0.00116883
0.8
0.00116882
0.8
0.00116882
0.8
0.00116881
0.8
0.0011688
0.8
0.00116879
0.800001
0.0011688
0.800001
0.00116888
0.8
0.00116912
0.799996
0.00117
0.799986
0.00117204
0.799962
0.00117925
0.79989
0.799811
0.000702402
0.785994
0.000848478
0.793549
0.000909394
0.797662
0.000933361
0.79928
0.000935028
0.800131
0.00093287
0.800278
0.000926731
0.80036
0.000922267
0.800274
0.000917892
0.800228
0.000915126
0.800152
0.0009129
0.800111
0.000911574
0.800069
0.000910596
0.800047
0.000910039
0.800028
0.000909648
0.800018
0.000909433
0.800011
0.000909287
0.800007
0.000909209
0.800004
0.000909157
0.800002
0.00090913
0.800001
0.000909112
0.800001
0.000909103
0.8
0.000909097
0.8
0.000909094
0.8
0.000909092
0.8
0.000909091
0.8
0.00090909
0.8
0.00090909
0.8
0.00090909
0.8
0.00090909
0.8
0.00090909
0.8
0.00090909
0.8
0.00090909
0.8
0.00090909
0.8
0.00090909
0.8
0.00090909
0.8
0.00090909
0.8
0.00090909
0.8
0.00090909
0.8
0.00090909
0.8
0.00090909
0.8
0.00090909
0.8
0.00090909
0.8
0.00090909
0.8
0.00090909
0.8
0.00090909
0.8
0.00090909
0.8
0.00090909
0.8
0.00090909
0.8
0.00090909
0.8
0.00090909
0.8
0.00090909
0.8
0.000909091
0.8
0.00090909
0.8
0.000909091
0.8
0.000909091
0.8
0.000909091
0.8
0.000909091
0.8
0.000909091
0.8
0.000909091
0.8
0.000909091
0.8
0.000909091
0.8
0.000909091
0.8
0.000909091
0.8
0.000909091
0.8
0.000909091
0.8
0.000909091
0.8
0.000909091
0.8
0.000909091
0.8
0.000909091
0.8
0.000909091
0.8
0.000909091
0.8
0.000909091
0.8
0.000909091
0.8
0.000909091
0.8
0.000909091
0.8
0.000909091
0.8
0.000909091
0.8
0.000909091
0.8
0.000909091
0.8
0.000909091
0.8
0.000909091
0.8
0.000909091
0.8
0.000909091
0.8
0.000909091
0.8
0.00090909
0.8
0.000909089
0.8
0.000909088
0.8
0.000909085
0.8
0.000909082
0.8
0.000909076
0.8
0.000909068
0.8
0.000909063
0.800001
0.000909069
0.800001
0.000909132
0.8
0.000909328
0.799996
0.000910039
0.799985
0.00091167
0.79996
0.000917451
0.799884
0.7998
0.000500284
0.7858
0.000605237
0.793444
0.000649131
0.797618
0.00066649
0.799263
0.000667786
0.80013
0.000666316
0.800279
0.000661949
0.800364
0.000658774
0.800277
0.000655647
0.800231
0.000653672
0.800154
0.000652078
0.800112
0.00065113
0.80007
0.00065043
0.800048
0.00065003
0.800028
0.00064975
0.800019
0.000649596
0.800011
0.000649491
0.800007
0.000649435
0.800004
0.000649398
0.800002
0.000649379
0.800001
0.000649366
0.800001
0.000649359
0.8
0.000649355
0.8
0.000649353
0.8
0.000649351
0.8
0.00064935
0.8
0.00064935
0.8
0.00064935
0.8
0.00064935
0.8
0.00064935
0.8
0.00064935
0.8
0.00064935
0.8
0.00064935
0.8
0.00064935
0.8
0.00064935
0.8
0.00064935
0.8
0.00064935
0.8
0.00064935
0.8
0.00064935
0.8
0.00064935
0.8
0.00064935
0.8
0.00064935
0.8
0.00064935
0.8
0.00064935
0.8
0.00064935
0.8
0.00064935
0.8
0.00064935
0.8
0.00064935
0.8
0.00064935
0.8
0.00064935
0.8
0.00064935
0.8
0.00064935
0.8
0.00064935
0.8
0.00064935
0.8
0.000649351
0.8
0.00064935
0.8
0.000649351
0.8
0.00064935
0.8
0.000649351
0.8
0.00064935
0.8
0.000649351
0.8
0.00064935
0.8
0.000649351
0.8
0.000649351
0.8
0.000649351
0.8
0.000649351
0.8
0.000649351
0.8
0.000649351
0.8
0.000649351
0.8
0.000649351
0.8
0.000649351
0.8
0.000649351
0.8
0.000649351
0.8
0.000649351
0.8
0.000649351
0.8
0.000649351
0.8
0.000649351
0.8
0.000649351
0.8
0.000649351
0.8
0.000649351
0.8
0.000649351
0.8
0.000649351
0.8
0.000649351
0.8
0.000649351
0.8
0.000649351
0.8
0.00064935
0.8
0.00064935
0.8
0.000649349
0.8
0.000649347
0.8
0.000649344
0.8
0.00064934
0.8
0.000649335
0.8
0.000649331
0.800001
0.000649336
0.800001
0.000649383
0.799999
0.000649527
0.799996
0.000650048
0.799985
0.000651239
0.799959
0.00065546