/*--------------------------------*- C++ -*----------------------------------*\
| =========                 |                                                 |
| \\      /  F ield         | OpenFOAM: The Open Source CFD Toolbox           |
|  \\    /   O peration     | Version:  v1906                                 |
|   \\  /    A nd           | Web:      www.OpenFOAM.com                      |
|    \\/     M anipulation  |                                                 |
\*---------------------------------------------------------------------------*/
FoamFile
{
    version     2.0;
    format      ascii;
    class       volVectorField;
    location    "1";
    object      U;
}
// * * * * * * * * * * * * * * * * * * * * * * * * * * * * * * * * * * * * * //

dimensions      [0 1 -1 0 0 0 0];


internalField   nonuniform List<vector> 
4000
(
(0.427071 0.0732057 0)
(0.418115 0.00685194 0)
(0.375403 -0.0005241 0)
(0.379016 -0.00107068 0)
(0.377771 -0.00130908 0)
(0.378958 -0.00120934 0)
(0.37871 -0.00120071 0)
(0.378648 -0.00117606 0)
(0.37835 -0.00117881 0)
(0.378129 -0.00117941 0)
(0.377906 -0.00118372 0)
(0.377727 -0.00118664 0)
(0.377572 -0.00118978 0)
(0.377443 -0.00119229 0)
(0.377335 -0.00119444 0)
(0.377245 -0.00119617 0)
(0.37717 -0.00119769 0)
(0.377109 -0.00119899 0)
(0.377058 -0.00120007 0)
(0.377017 -0.00120097 0)
(0.376984 -0.00120174 0)
(0.376958 -0.00120236 0)
(0.376938 -0.00120288 0)
(0.376921 -0.00120328 0)
(0.376909 -0.00120361 0)
(0.376899 -0.00120388 0)
(0.376892 -0.00120409 0)
(0.376886 -0.00120425 0)
(0.376882 -0.00120438 0)
(0.376879 -0.00120446 0)
(0.376877 -0.00120454 0)
(0.376875 -0.00120459 0)
(0.376874 -0.00120463 0)
(0.376873 -0.00120466 0)
(0.376873 -0.00120469 0)
(0.376872 -0.00120469 0)
(0.376872 -0.00120469 0)
(0.376872 -0.00120471 0)
(0.376872 -0.00120473 0)
(0.376871 -0.00120472 0)
(0.376871 -0.00120471 0)
(0.376871 -0.00120472 0)
(0.376871 -0.00120474 0)
(0.376871 -0.00120472 0)
(0.376871 -0.00120472 0)
(0.376871 -0.00120473 0)
(0.376871 -0.00120474 0)
(0.376871 -0.00120473 0)
(0.376871 -0.00120473 0)
(0.376871 -0.00120473 0)
(0.376871 -0.00120474 0)
(0.376871 -0.00120473 0)
(0.376871 -0.00120473 0)
(0.376871 -0.00120473 0)
(0.376871 -0.00120472 0)
(0.376871 -0.00120472 0)
(0.376871 -0.00120473 0)
(0.376871 -0.00120473 0)
(0.376871 -0.00120473 0)
(0.376871 -0.00120472 0)
(0.376871 -0.00120473 0)
(0.376871 -0.00120473 0)
(0.376871 -0.00120473 0)
(0.376871 -0.00120473 0)
(0.376871 -0.00120474 0)
(0.376871 -0.00120473 0)
(0.376871 -0.00120474 0)
(0.376871 -0.00120474 0)
(0.376871 -0.00120474 0)
(0.376871 -0.00120473 0)
(0.376871 -0.00120473 0)
(0.376871 -0.00120473 0)
(0.376871 -0.00120473 0)
(0.376871 -0.00120473 0)
(0.376871 -0.00120473 0)
(0.376871 -0.00120472 0)
(0.376871 -0.00120473 0)
(0.376871 -0.00120473 0)
(0.376871 -0.00120473 0)
(0.376871 -0.00120472 0)
(0.376871 -0.00120472 0)
(0.376871 -0.00120472 0)
(0.376871 -0.00120471 0)
(0.376871 -0.0012047 0)
(0.37687 -0.00120469 0)
(0.37687 -0.00120466 0)
(0.376869 -0.00120464 0)
(0.376868 -0.0012046 0)
(0.376867 -0.00120454 0)
(0.376865 -0.00120445 0)
(0.376862 -0.00120435 0)
(0.376858 -0.00120425 0)
(0.376853 -0.00120419 0)
(0.376848 -0.00120432 0)
(0.376845 -0.00120471 0)
(0.37684 -0.00120465 0)
(0.37684 -0.00120165 0)
(0.376711 -0.00118544 0)
(0.376552 -0.0011668 0)
(0.376217 -0.00130295 0)
(0.78907 0.171985 0)
(0.802518 0.0240812 0)
(0.7353 0.00284003 0)
(0.741219 8.61967e-05 0)
(0.738297 -0.000766504 0)
(0.740436 -0.000454053 0)
(0.739985 -0.000390848 0)
(0.739936 -0.000298637 0)
(0.739431 -0.000300269 0)
(0.739062 -0.000301805 0)
(0.738678 -0.000316999 0)
(0.738371 -0.000328767 0)
(0.7381 -0.000341083 0)
(0.737875 -0.000351008 0)
(0.737685 -0.000359722 0)
(0.737526 -0.00036696 0)
(0.737394 -0.000373302 0)
(0.737284 -0.000378777 0)
(0.737194 -0.000383405 0)
(0.73712 -0.000387254 0)
(0.737061 -0.000390535 0)
(0.737013 -0.000393269 0)
(0.736975 -0.000395532 0)
(0.736946 -0.000397316 0)
(0.736923 -0.000398779 0)
(0.736905 -0.000399983 0)
(0.736891 -0.000400931 0)
(0.736881 -0.000401626 0)
(0.736873 -0.000402199 0)
(0.736868 -0.000402615 0)
(0.736864 -0.000402943 0)
(0.73686 -0.000403167 0)
(0.736858 -0.000403353 0)
(0.736857 -0.000403475 0)
(0.736855 -0.000403574 0)
(0.736855 -0.00040362 0)
(0.736854 -0.000403671 0)
(0.736854 -0.000403714 0)
(0.736853 -0.000403744 0)
(0.736853 -0.000403745 0)
(0.736853 -0.000403766 0)
(0.736853 -0.000403781 0)
(0.736852 -0.000403813 0)
(0.736852 -0.000403787 0)
(0.736852 -0.000403786 0)
(0.736852 -0.000403804 0)
(0.736852 -0.000403826 0)
(0.736852 -0.000403803 0)
(0.736853 -0.000403815 0)
(0.736853 -0.000403799 0)
(0.736853 -0.000403817 0)
(0.736853 -0.000403803 0)
(0.736853 -0.000403806 0)
(0.736853 -0.000403794 0)
(0.736853 -0.000403784 0)
(0.736853 -0.000403774 0)
(0.736853 -0.000403788 0)
(0.736852 -0.000403787 0)
(0.736852 -0.000403806 0)
(0.736852 -0.000403786 0)
(0.736852 -0.000403808 0)
(0.736852 -0.000403818 0)
(0.736852 -0.000403823 0)
(0.736853 -0.00040381 0)
(0.736853 -0.000403827 0)
(0.736853 -0.000403814 0)
(0.736853 -0.000403813 0)
(0.736853 -0.000403816 0)
(0.736853 -0.000403824 0)
(0.736853 -0.000403814 0)
(0.736853 -0.00040381 0)
(0.736853 -0.000403795 0)
(0.736853 -0.000403805 0)
(0.736853 -0.000403793 0)
(0.736853 -0.000403793 0)
(0.736853 -0.000403775 0)
(0.736853 -0.000403792 0)
(0.736853 -0.000403792 0)
(0.736852 -0.000403803 0)
(0.736852 -0.000403787 0)
(0.736852 -0.000403771 0)
(0.736852 -0.000403752 0)
(0.736852 -0.000403733 0)
(0.736851 -0.000403695 0)
(0.736851 -0.000403657 0)
(0.73685 -0.000403559 0)
(0.736849 -0.000403442 0)
(0.736847 -0.000403278 0)
(0.736845 -0.000403049 0)
(0.736841 -0.000402716 0)
(0.736836 -0.000402298 0)
(0.736829 -0.000401881 0)
(0.73682 -0.000401559 0)
(0.73681 -0.000401737 0)
(0.736802 -0.000402258 0)
(0.736784 -0.000400169 0)
(0.736764 -0.000382622 0)
(0.736486 -0.000315959 0)
(0.736102 -0.000212922 0)
(0.734293 -0.000457807 0)
(0.938174 0.19532 0)
(0.975114 0.0389484 0)
(0.907059 0.00768414 0)
(0.914271 0.00117512 0)
(0.910169 -0.000432349 0)
(0.912679 1.64084e-05 0)
(0.912105 0.000180573 0)
(0.91212 0.00035739 0)
(0.911573 0.00036725 0)
(0.911191 0.000363431 0)
(0.910777 0.000333609 0)
(0.910447 0.000308171 0)
(0.910153 0.000282579 0)
(0.90991 0.000262278 0)
(0.909702 0.000244434 0)
(0.909528 0.000229373 0)
(0.909383 0.000216376 0)
(0.909261 0.000205198 0)
(0.909162 0.000195697 0)
(0.90908 0.000187694 0)
(0.909013 0.000180885 0)
(0.90896 0.000175267 0)
(0.908917 0.000170574 0)
(0.908884 0.000166765 0)
(0.908858 0.00016366 0)
(0.908837 0.000161144 0)
(0.908822 0.000159171 0)
(0.90881 0.000157686 0)
(0.908801 0.000156446 0)
(0.908795 0.000155541 0)
(0.90879 0.000154857 0)
(0.908786 0.000154352 0)
(0.908784 0.000153978 0)
(0.908782 0.000153715 0)
(0.90878 0.0001535 0)
(0.908779 0.000153379 0)
(0.908779 0.000153255 0)
(0.908778 0.000153188 0)
(0.908778 0.000153141 0)
(0.908777 0.00015311 0)
(0.908777 0.00015306 0)
(0.908777 0.00015305 0)
(0.908777 0.000153001 0)
(0.908777 0.00015301 0)
(0.908777 0.000153003 0)
(0.908777 0.000152992 0)
(0.908777 0.000152961 0)
(0.908777 0.000152984 0)
(0.908777 0.000152952 0)
(0.908777 0.000152968 0)
(0.908777 0.000152954 0)
(0.908777 0.000152991 0)
(0.908777 0.000152999 0)
(0.908777 0.000153002 0)
(0.908777 0.000153017 0)
(0.908777 0.000153051 0)
(0.908777 0.000153031 0)
(0.908777 0.000153033 0)
(0.908777 0.000153005 0)
(0.908777 0.000153021 0)
(0.908777 0.000152977 0)
(0.908777 0.000152967 0)
(0.908777 0.000152951 0)
(0.908777 0.000152971 0)
(0.908777 0.000152948 0)
(0.908777 0.000152965 0)
(0.908777 0.000152966 0)
(0.908777 0.000152968 0)
(0.908777 0.000152954 0)
(0.908777 0.000152967 0)
(0.908777 0.000152968 0)
(0.908777 0.000152997 0)
(0.908777 0.000152999 0)
(0.908777 0.00015302 0)
(0.908777 0.000153009 0)
(0.908777 0.000153029 0)
(0.908777 0.000153009 0)
(0.908777 0.000153016 0)
(0.908777 0.000153001 0)
(0.908777 0.000153021 0)
(0.908776 0.000153048 0)
(0.908776 0.000153098 0)
(0.908776 0.000153147 0)
(0.908775 0.000153223 0)
(0.908775 0.000153308 0)
(0.908774 0.000153492 0)
(0.908773 0.000153743 0)
(0.908771 0.000154094 0)
(0.908768 0.000154571 0)
(0.908764 0.00015524 0)
(0.908758 0.000156107 0)
(0.90875 0.000157011 0)
(0.90874 0.000157821 0)
(0.908728 0.000157842 0)
(0.908716 0.000158232 0)
(0.908686 0.00016506 0)
(0.908646 0.000210334 0)
(0.908279 0.000360093 0)
(0.907752 0.000653335 0)
(0.904637 0.000607043 0)
(0.996233 0.187063 0)
(1.05005 0.0487138 0)
(0.988565 0.0120625 0)
(0.996808 0.0017283 0)
(0.991943 -0.000549639 0)
(0.994581 -5.89744e-05 0)
(0.993917 0.000218797 0)
(0.994011 0.000475101 0)
(0.99349 0.00050264 0)
(0.993153 0.000496717 0)
(0.992767 0.000453803 0)
(0.992464 0.000415336 0)
(0.992191 0.000377481 0)
(0.991965 0.000346447 0)
(0.99177 0.000318989 0)
(0.991607 0.000295381 0)
(0.991469 0.000275647 0)
(0.991355 0.00025879 0)
(0.99126 0.000244408 0)
(0.991182 0.000232202 0)
(0.991118 0.000221757 0)
(0.991066 0.000213172 0)
(0.991025 0.00020603 0)
(0.990992 0.00020014 0)
(0.990967 0.000195376 0)
(0.990947 0.000191558 0)
(0.990931 0.000188509 0)
(0.99092 0.000186177 0)
(0.990911 0.00018425 0)
(0.990904 0.000182831 0)
(0.9909 0.000181783 0)
(0.990896 0.000180983 0)
(0.990893 0.0001804 0)
(0.990892 0.000179987 0)
(0.99089 0.000179639 0)
(0.990889 0.000179445 0)
(0.990888 0.000179264 0)
(0.990888 0.00017915 0)
(0.990887 0.000179072 0)
(0.990887 0.000179014 0)
(0.990887 0.000178939 0)
(0.990886 0.000178926 0)
(0.990886 0.000178873 0)
(0.990886 0.000178866 0)
(0.990886 0.000178855 0)
(0.990886 0.000178837 0)
(0.990886 0.00017878 0)
(0.990886 0.000178806 0)
(0.990887 0.000178779 0)
(0.990887 0.000178797 0)
(0.990887 0.000178769 0)
(0.990887 0.000178811 0)
(0.990887 0.000178839 0)
(0.990887 0.000178845 0)
(0.990887 0.000178867 0)
(0.990887 0.000178924 0)
(0.990887 0.000178905 0)
(0.990886 0.0001789 0)
(0.990886 0.000178862 0)
(0.990886 0.000178876 0)
(0.990886 0.000178814 0)
(0.990886 0.000178797 0)
(0.990886 0.000178772 0)
(0.990886 0.000178805 0)
(0.990887 0.000178787 0)
(0.990887 0.000178803 0)
(0.990887 0.000178797 0)
(0.990887 0.000178798 0)
(0.990887 0.000178785 0)
(0.990887 0.000178804 0)
(0.990887 0.000178802 0)
(0.990887 0.000178834 0)
(0.990887 0.000178848 0)
(0.990887 0.000178884 0)
(0.990887 0.000178871 0)
(0.990887 0.000178886 0)
(0.990887 0.000178857 0)
(0.990886 0.000178867 0)
(0.990886 0.00017886 0)
(0.990886 0.000178895 0)
(0.990886 0.000178928 0)
(0.990886 0.000178995 0)
(0.990886 0.000179075 0)
(0.990885 0.000179199 0)
(0.990885 0.000179346 0)
(0.990884 0.00017962 0)
(0.990882 0.000180007 0)
(0.99088 0.000180551 0)
(0.990878 0.000181292 0)
(0.990874 0.000182314 0)
(0.990868 0.00018366 0)
(0.990861 0.000185109 0)
(0.990851 0.000186566 0)
(0.990838 0.000187144 0)
(0.990824 0.000189568 0)
(0.990785 0.000203109 0)
(0.99073 0.000283727 0)
(0.990321 0.000530361 0)
(0.989739 0.00109588 0)
(0.985951 0.00141753 0)
(1.01564 0.17089 0)
(1.08002 0.0545006 0)
(1.02689 0.0154955 0)
(1.03601 0.00207304 0)
(1.0307 -0.000734098 0)
(1.03336 -0.000252237 0)
(1.03262 0.000132053 0)
(1.03279 0.000448837 0)
(1.03233 0.00049408 0)
(1.03206 0.000486798 0)
(1.03173 0.00043524 0)
(1.03147 0.000387389 0)
(1.03124 0.000340714 0)
(1.03105 0.000301016 0)
(1.03088 0.000265906 0)
(1.03074 0.000235646 0)
(1.03062 0.000210053 0)
(1.03052 0.000187988 0)
(1.03044 0.000169013 0)
(1.03037 0.000152785 0)
(1.03031 0.000138701 0)
(1.03026 0.000127159 0)
(1.03023 0.000117771 0)
(1.0302 0.000110001 0)
(1.03018 0.000103705 0)
(1.03016 9.86594e-05 0)
(1.03014 9.46018e-05 0)
(1.03013 9.14805e-05 0)
(1.03012 8.89463e-05 0)
(1.03012 8.70557e-05 0)
(1.03011 8.56541e-05 0)
(1.03011 8.45773e-05 0)
(1.03011 8.37889e-05 0)
(1.03011 8.32405e-05 0)
(1.0301 8.27706e-05 0)
(1.0301 8.25118e-05 0)
(1.0301 8.22783e-05 0)
(1.0301 8.21106e-05 0)
(1.0301 8.19897e-05 0)
(1.0301 8.19263e-05 0)
(1.0301 8.1839e-05 0)
(1.0301 8.1813e-05 0)
(1.0301 8.17443e-05 0)
(1.0301 8.17233e-05 0)
(1.0301 8.17044e-05 0)
(1.0301 8.1685e-05 0)
(1.0301 8.1602e-05 0)
(1.0301 8.16254e-05 0)
(1.0301 8.16008e-05 0)
(1.0301 8.16285e-05 0)
(1.0301 8.15916e-05 0)
(1.0301 8.16358e-05 0)
(1.0301 8.16793e-05 0)
(1.0301 8.1697e-05 0)
(1.0301 8.17254e-05 0)
(1.0301 8.18036e-05 0)
(1.0301 8.17856e-05 0)
(1.0301 8.17762e-05 0)
(1.0301 8.17211e-05 0)
(1.0301 8.17304e-05 0)
(1.0301 8.1652e-05 0)
(1.0301 8.16308e-05 0)
(1.0301 8.15922e-05 0)
(1.0301 8.16329e-05 0)
(1.0301 8.16186e-05 0)
(1.0301 8.16375e-05 0)
(1.0301 8.16266e-05 0)
(1.0301 8.16259e-05 0)
(1.0301 8.16078e-05 0)
(1.0301 8.16328e-05 0)
(1.0301 8.16328e-05 0)
(1.0301 8.16758e-05 0)
(1.0301 8.16946e-05 0)
(1.0301 8.17397e-05 0)
(1.0301 8.17257e-05 0)
(1.0301 8.17439e-05 0)
(1.0301 8.17083e-05 0)
(1.0301 8.17206e-05 0)
(1.0301 8.17171e-05 0)
(1.0301 8.17654e-05 0)
(1.0301 8.18086e-05 0)
(1.0301 8.18924e-05 0)
(1.0301 8.19972e-05 0)
(1.0301 8.21653e-05 0)
(1.0301 8.23695e-05 0)
(1.0301 8.27264e-05 0)
(1.0301 8.32306e-05 0)
(1.0301 8.39467e-05 0)
(1.03009 8.4924e-05 0)
(1.03009 8.62652e-05 0)
(1.03009 8.80521e-05 0)
(1.03008 9.0029e-05 0)
(1.03007 9.22181e-05 0)
(1.03006 9.36828e-05 0)
(1.03004 9.90637e-05 0)
(1.03 0.000120574 0)
(1.02994 0.000239915 0)
(1.02952 0.000575332 0)
(1.02896 0.00144305 0)
(1.02509 0.00215113 0)
(1.01911 0.153411 0)
(1.0895 0.0575274 0)
(1.04458 0.018036 0)
(1.05446 0.00237916 0)
(1.04892 -0.000829614 0)
(1.05155 -0.000389687 0)
(1.05075 8.889e-05 0)
(1.05101 0.000448652 0)
(1.0506 0.000510154 0)
(1.05041 0.000502113 0)
(1.05015 0.000444235 0)
(1.04995 0.000388942 0)
(1.04976 0.000335388 0)
(1.04961 0.000289597 0)
(1.04947 0.00024933 0)
(1.04936 0.00021483 0)
(1.04926 0.000184841 0)
(1.04918 0.000158726 0)
(1.04911 0.000136191 0)
(1.04905 0.000116924 0)
(1.04901 0.000100181 0)
(1.04897 8.62824e-05 0)
(1.04894 7.48841e-05 0)
(1.04891 6.54065e-05 0)
(1.04889 5.76278e-05 0)
(1.04888 5.12922e-05 0)
(1.04887 4.63352e-05 0)
(1.04886 4.25098e-05 0)
(1.04885 3.9444e-05 0)
(1.04884 3.7137e-05 0)
(1.04884 3.54122e-05 0)
(1.04884 3.40958e-05 0)
(1.04884 3.31242e-05 0)
(1.04883 3.24617e-05 0)
(1.04883 3.18968e-05 0)
(1.04883 3.15675e-05 0)
(1.04883 3.12805e-05 0)
(1.04883 3.10703e-05 0)
(1.04883 3.09215e-05 0)
(1.04883 3.08476e-05 0)
(1.04883 3.07471e-05 0)
(1.04883 3.07047e-05 0)
(1.04883 3.06279e-05 0)
(1.04883 3.0592e-05 0)
(1.04883 3.05596e-05 0)
(1.04883 3.05436e-05 0)
(1.04883 3.04416e-05 0)
(1.04883 3.04504e-05 0)
(1.04883 3.04242e-05 0)
(1.04883 3.04664e-05 0)
(1.04883 3.04314e-05 0)
(1.04883 3.04719e-05 0)
(1.04883 3.05256e-05 0)
(1.04883 3.05561e-05 0)
(1.04883 3.05933e-05 0)
(1.04883 3.06862e-05 0)
(1.04883 3.06709e-05 0)
(1.04883 3.06608e-05 0)
(1.04883 3.05911e-05 0)
(1.04883 3.05926e-05 0)
(1.04883 3.05018e-05 0)
(1.04883 3.04764e-05 0)
(1.04883 3.0427e-05 0)
(1.04883 3.04712e-05 0)
(1.04883 3.04634e-05 0)
(1.04883 3.04847e-05 0)
(1.04883 3.04719e-05 0)
(1.04883 3.04701e-05 0)
(1.04883 3.04467e-05 0)
(1.04883 3.04729e-05 0)
(1.04883 3.04768e-05 0)
(1.04883 3.05291e-05 0)
(1.04883 3.05507e-05 0)
(1.04883 3.06013e-05 0)
(1.04883 3.05887e-05 0)
(1.04883 3.06098e-05 0)
(1.04883 3.05721e-05 0)
(1.04883 3.05857e-05 0)
(1.04883 3.05828e-05 0)
(1.04883 3.06413e-05 0)
(1.04883 3.06983e-05 0)
(1.04883 3.07971e-05 0)
(1.04883 3.09212e-05 0)
(1.04883 3.11251e-05 0)
(1.04883 3.13785e-05 0)
(1.04883 3.18044e-05 0)
(1.04883 3.24071e-05 0)
(1.04883 3.32667e-05 0)
(1.04882 3.44438e-05 0)
(1.04882 3.60486e-05 0)
(1.04882 3.82159e-05 0)
(1.04881 4.06987e-05 0)
(1.0488 4.3685e-05 0)
(1.04879 4.6297e-05 0)
(1.04877 5.53944e-05 0)
(1.04873 8.55484e-05 0)
(1.04867 0.000240588 0)
(1.04828 0.000654206 0)
(1.04778 0.00181877 0)
(1.04425 0.00286307 0)
(1.0165 0.1363 0)
(1.08996 0.0584874 0)
(1.05246 0.0197596 0)
(1.06298 0.00263912 0)
(1.05736 -0.000858688 0)
(1.05993 -0.000478241 0)
(1.05909 7.59193e-05 0)
(1.05941 0.000467144 0)
(1.05907 0.000543171 0)
(1.05896 0.000534923 0)
(1.05876 0.000472566 0)
(1.05862 0.000411492 0)
(1.05848 0.000352534 0)
(1.05837 0.00030197 0)
(1.05827 0.000257502 0)
(1.05818 0.000219399 0)
(1.05811 0.000186245 0)
(1.05805 0.000157376 0)
(1.058 0.000132498 0)
(1.05795 0.000111317 0)
(1.05792 9.30434e-05 0)
(1.05789 7.76456e-05 0)
(1.05786 6.47457e-05 0)
(1.05784 5.40045e-05 0)
(1.05783 4.51479e-05 0)
(1.05781 3.79e-05 0)
(1.0578 3.21626e-05 0)
(1.0578 2.76728e-05 0)
(1.05779 2.4054e-05 0)
(1.05779 2.13658e-05 0)
(1.05778 1.93562e-05 0)
(1.05778 1.78363e-05 0)
(1.05778 1.67167e-05 0)
(1.05778 1.59546e-05 0)
(1.05778 1.53109e-05 0)
(1.05778 1.49169e-05 0)
(1.05778 1.45868e-05 0)
(1.05778 1.4346e-05 0)
(1.05778 1.41784e-05 0)
(1.05778 1.40897e-05 0)
(1.05778 1.39773e-05 0)
(1.05777 1.39224e-05 0)
(1.05777 1.38454e-05 0)
(1.05777 1.37947e-05 0)
(1.05777 1.37405e-05 0)
(1.05777 1.37252e-05 0)
(1.05777 1.36147e-05 0)
(1.05777 1.36042e-05 0)
(1.05777 1.35707e-05 0)
(1.05778 1.36252e-05 0)
(1.05778 1.36005e-05 0)
(1.05778 1.36367e-05 0)
(1.05778 1.3698e-05 0)
(1.05778 1.3739e-05 0)
(1.05778 1.37867e-05 0)
(1.05778 1.38923e-05 0)
(1.05778 1.38818e-05 0)
(1.05778 1.38714e-05 0)
(1.05777 1.37935e-05 0)
(1.05777 1.3784e-05 0)
(1.05777 1.3682e-05 0)
(1.05777 1.36558e-05 0)
(1.05778 1.36018e-05 0)
(1.05778 1.36439e-05 0)
(1.05778 1.36417e-05 0)
(1.05778 1.36639e-05 0)
(1.05778 1.36505e-05 0)
(1.05778 1.36472e-05 0)
(1.05778 1.36196e-05 0)
(1.05778 1.36447e-05 0)
(1.05778 1.36512e-05 0)
(1.05778 1.37087e-05 0)
(1.05778 1.37354e-05 0)
(1.05778 1.37913e-05 0)
(1.05778 1.37809e-05 0)
(1.05778 1.38027e-05 0)
(1.05778 1.37645e-05 0)
(1.05777 1.37785e-05 0)
(1.05777 1.37775e-05 0)
(1.05777 1.3842e-05 0)
(1.05777 1.39124e-05 0)
(1.05777 1.40249e-05 0)
(1.05777 1.41646e-05 0)
(1.05777 1.43964e-05 0)
(1.05777 1.469e-05 0)
(1.05777 1.51692e-05 0)
(1.05777 1.58487e-05 0)
(1.05777 1.68184e-05 0)
(1.05777 1.81543e-05 0)
(1.05777 1.99826e-05 0)
(1.05776 2.24784e-05 0)
(1.05776 2.54917e-05 0)
(1.05775 2.93807e-05 0)
(1.05774 3.33299e-05 0)
(1.05773 4.61979e-05 0)
(1.05768 8.41476e-05 0)
(1.05762 0.000269167 0)
(1.05728 0.000751788 0)
(1.05688 0.00217983 0)
(1.05392 0.00349298 0)
(1.01203 0.120289 0)
(1.08677 0.0578534 0)
(1.0557 0.0207395 0)
(1.06676 0.00282667 0)
(1.06115 -0.000856315 0)
(1.06364 -0.000540688 0)
(1.06276 6.82144e-05 0)
(1.06314 0.000481503 0)
(1.06287 0.000569734 0)
(1.06284 0.000561815 0)
(1.0627 0.000497032 0)
(1.06262 0.000432237 0)
(1.06252 0.000369764 0)
(1.06245 0.000315946 0)
(1.06239 0.000268492 0)
(1.06233 0.000227731 0)
(1.06228 0.000192348 0)
(1.06224 0.000161524 0)
(1.0622 0.000134927 0)
(1.06217 0.000112248 0)
(1.06215 9.27003e-05 0)
(1.06213 7.61967e-05 0)
(1.06211 6.23528e-05 0)
(1.0621 5.08574e-05 0)
(1.06209 4.14244e-05 0)
(1.06208 3.37671e-05 0)
(1.06207 2.75044e-05 0)
(1.06206 2.25672e-05 0)
(1.06206 1.85781e-05 0)
(1.06206 1.55683e-05 0)
(1.06205 1.32877e-05 0)
(1.06205 1.15662e-05 0)
(1.06205 1.03259e-05 0)
(1.06205 9.47866e-06 0)
(1.06205 8.77042e-06 0)
(1.06205 8.32228e-06 0)
(1.06205 7.95883e-06 0)
(1.06205 7.70094e-06 0)
(1.06205 7.5204e-06 0)
(1.06205 7.41532e-06 0)
(1.06205 7.29397e-06 0)
(1.06205 7.23234e-06 0)
(1.06205 7.15926e-06 0)
(1.06205 7.09529e-06 0)
(1.06205 7.01416e-06 0)
(1.06205 6.99624e-06 0)
(1.06205 6.88491e-06 0)
(1.06205 6.85711e-06 0)
(1.06205 6.81298e-06 0)
(1.06205 6.87514e-06 0)
(1.06205 6.86238e-06 0)
(1.06205 6.89579e-06 0)
(1.06205 6.96196e-06 0)
(1.06205 7.01203e-06 0)
(1.06205 7.06889e-06 0)
(1.06205 7.18736e-06 0)
(1.06205 7.18271e-06 0)
(1.06205 7.17183e-06 0)
(1.06205 7.08909e-06 0)
(1.06205 7.06991e-06 0)
(1.06205 6.95595e-06 0)
(1.06205 6.93253e-06 0)
(1.06205 6.88095e-06 0)
(1.06205 6.91854e-06 0)
(1.06205 6.91827e-06 0)
(1.06205 6.94096e-06 0)
(1.06205 6.92742e-06 0)
(1.06205 6.92271e-06 0)
(1.06205 6.89051e-06 0)
(1.06205 6.91333e-06 0)
(1.06205 6.92076e-06 0)
(1.06205 6.97994e-06 0)
(1.06205 7.01308e-06 0)
(1.06205 7.07581e-06 0)
(1.06205 7.06688e-06 0)
(1.06205 7.08817e-06 0)
(1.06205 7.05046e-06 0)
(1.06205 7.06464e-06 0)
(1.06205 7.06633e-06 0)
(1.06205 7.13475e-06 0)
(1.06205 7.21427e-06 0)
(1.06205 7.33749e-06 0)
(1.06205 7.48901e-06 0)
(1.06205 7.74132e-06 0)
(1.06205 8.0649e-06 0)
(1.06205 8.58134e-06 0)
(1.06204 9.31657e-06 0)
(1.06204 1.03721e-05 0)
(1.06204 1.1832e-05 0)
(1.06204 1.38903e-05 0)
(1.06204 1.66955e-05 0)
(1.06204 2.01311e-05 0)
(1.06203 2.47911e-05 0)
(1.06202 3.00226e-05 0)
(1.06201 4.62063e-05 0)
(1.06197 9.05344e-05 0)
(1.06192 0.00030148 0)
(1.06164 0.000838737 0)
(1.06135 0.00247848 0)
(1.05909 0.00399125 0)
(1.00739 0.105668 0)
(1.08235 0.0559963 0)
(1.05677 0.0210632 0)
(1.06828 0.00293501 0)
(1.06275 -0.000836702 0)
(1.06515 -0.000584345 0)
(1.06424 6.01051e-05 0)
(1.06467 0.000485076 0)
(1.06445 0.000582675 0)
(1.06449 0.000575532 0)
(1.06441 0.000510287 0)
(1.06438 0.000443851 0)
(1.06434 0.00037981 0)
(1.06431 0.000324402 0)
(1.06427 0.00027541 0)
(1.06425 0.000233219 0)
(1.06422 0.000196613 0)
(1.0642 0.000164678 0)
(1.06418 0.00013706 0)
(1.06416 0.00011343 0)
(1.06415 9.30237e-05 0)
(1.06414 7.57996e-05 0)
(1.06413 6.13518e-05 0)
(1.06412 4.93349e-05 0)
(1.06411 3.94756e-05 0)
(1.06411 3.14998e-05 0)
(1.0641 2.49814e-05 0)
(1.0641 1.98578e-05 0)
(1.0641 1.57463e-05 0)
(1.06409 1.25571e-05 0)
(1.06409 1.01191e-05 0)
(1.06409 8.28096e-06 0)
(1.06409 6.93366e-06 0)
(1.06409 6.0017e-06 0)
(1.06409 5.23284e-06 0)
(1.06409 4.74391e-06 0)
(1.06409 4.35136e-06 0)
(1.06409 4.08727e-06 0)
(1.06409 3.89973e-06 0)
(1.06409 3.78155e-06 0)
(1.06409 3.65445e-06 0)
(1.06409 3.59009e-06 0)
(1.06409 3.52017e-06 0)
(1.06409 3.44537e-06 0)
(1.06409 3.3356e-06 0)
(1.06409 3.31375e-06 0)
(1.06409 3.20557e-06 0)
(1.06409 3.16547e-06 0)
(1.06409 3.10895e-06 0)
(1.06409 3.17569e-06 0)
(1.06409 3.17314e-06 0)
(1.06409 3.20579e-06 0)
(1.06409 3.27339e-06 0)
(1.06409 3.33436e-06 0)
(1.06409 3.39702e-06 0)
(1.06409 3.52806e-06 0)
(1.06409 3.52932e-06 0)
(1.06409 3.51859e-06 0)
(1.06409 3.43007e-06 0)
(1.06409 3.40522e-06 0)
(1.06409 3.27979e-06 0)
(1.06409 3.26062e-06 0)
(1.06409 3.21453e-06 0)
(1.06409 3.24805e-06 0)
(1.06409 3.24523e-06 0)
(1.06409 3.26951e-06 0)
(1.06409 3.25614e-06 0)
(1.06409 3.25037e-06 0)
(1.06409 3.21129e-06 0)
(1.06409 3.23205e-06 0)
(1.06409 3.24029e-06 0)
(1.06409 3.30016e-06 0)
(1.06409 3.33782e-06 0)
(1.06409 3.40821e-06 0)
(1.06409 3.40005e-06 0)
(1.06409 3.42153e-06 0)
(1.06409 3.38539e-06 0)
(1.06409 3.40053e-06 0)
(1.06409 3.40314e-06 0)
(1.06409 3.47439e-06 0)
(1.06409 3.55873e-06 0)
(1.06409 3.68834e-06 0)
(1.06409 3.84676e-06 0)
(1.06409 4.1126e-06 0)
(1.06409 4.45682e-06 0)
(1.06409 4.99851e-06 0)
(1.06409 5.77384e-06 0)
(1.06409 6.91651e-06 0)
(1.06408 8.47926e-06 0)
(1.06408 1.06634e-05 0)
(1.06408 1.36556e-05 0)
(1.06408 1.73234e-05 0)
(1.06408 2.25205e-05 0)
(1.06407 2.88533e-05 0)
(1.06406 4.80318e-05 0)
(1.06403 9.77696e-05 0)
(1.06398 0.000328774 0)
(1.06379 0.000903517 0)
(1.06361 0.00269449 0)
(1.06211 0.00433977 0)
(1.00321 0.0924253 0)
(1.07778 0.0531989 0)
(1.05685 0.0208207 0)
(1.06875 0.00296652 0)
(1.06333 -0.000804493 0)
(1.06563 -0.000610302 0)
(1.06468 5.13619e-05 0)
(1.06516 0.000477745 0)
(1.065 0.000581612 0)
(1.0651 0.000575561 0)
(1.06508 0.000511547 0)
(1.0651 0.00044534 0)
(1.0651 0.000381502 0)
(1.0651 0.000326055 0)
(1.0651 0.000276896 0)
(1.0651 0.00023447 0)
(1.0651 0.000197647 0)
(1.06509 0.000165467 0)
(1.06509 0.000137585 0)
(1.06509 0.000113659 0)
(1.06508 9.29469e-05 0)
(1.06508 7.54503e-05 0)
(1.06508 6.07529e-05 0)
(1.06507 4.84873e-05 0)
(1.06507 3.84003e-05 0)
(1.06507 3.02482e-05 0)
(1.06507 2.36126e-05 0)
(1.06507 1.83843e-05 0)
(1.06507 1.41961e-05 0)
(1.06506 1.09471e-05 0)
(1.06506 8.48457e-06 0)
(1.06506 6.6432e-06 0)
(1.06506 5.24507e-06 0)
(1.06506 4.27496e-06 0)
(1.06506 3.47497e-06 0)
(1.06506 2.9554e-06 0)
(1.06506 2.5333e-06 0)
(1.06506 2.26553e-06 0)
(1.06506 2.07697e-06 0)
(1.06506 1.94967e-06 0)
(1.06506 1.82e-06 0)
(1.06506 1.75333e-06 0)
(1.06506 1.68396e-06 0)
(1.06506 1.60233e-06 0)
(1.06506 1.46552e-06 0)
(1.06506 1.43695e-06 0)
(1.06506 1.33366e-06 0)
(1.06506 1.28678e-06 0)
(1.06506 1.21856e-06 0)
(1.06506 1.28684e-06 0)
(1.06506 1.29179e-06 0)
(1.06506 1.32468e-06 0)
(1.06506 1.39231e-06 0)
(1.06506 1.46665e-06 0)
(1.06506 1.5328e-06 0)
(1.06506 1.67355e-06 0)
(1.06506 1.6811e-06 0)
(1.06506 1.67193e-06 0)
(1.06506 1.57697e-06 0)
(1.06506 1.55001e-06 0)
(1.06506 1.41596e-06 0)
(1.06506 1.39967e-06 0)
(1.06506 1.35956e-06 0)
(1.06506 1.39067e-06 0)
(1.06506 1.3827e-06 0)
(1.06506 1.4079e-06 0)
(1.06506 1.395e-06 0)
(1.06506 1.38871e-06 0)
(1.06506 1.34161e-06 0)
(1.06506 1.35916e-06 0)
(1.06506 1.36883e-06 0)
(1.06506 1.43001e-06 0)
(1.06506 1.46949e-06 0)
(1.06506 1.54629e-06 0)
(1.06506 1.53955e-06 0)
(1.06506 1.56259e-06 0)
(1.06506 1.52875e-06 0)
(1.06506 1.54573e-06 0)
(1.06506 1.54752e-06 0)
(1.06506 1.61969e-06 0)
(1.06506 1.70598e-06 0)
(1.06506 1.83719e-06 0)
(1.06506 1.99797e-06 0)
(1.06506 2.27189e-06 0)
(1.06506 2.63242e-06 0)
(1.06506 3.19741e-06 0)
(1.06506 3.99523e-06 0)
(1.06506 5.16827e-06 0)
(1.06506 6.76832e-06 0)
(1.06506 8.94136e-06 0)
(1.06506 1.19763e-05 0)
(1.06506 1.58029e-05 0)
(1.06506 2.1462e-05 0)
(1.06505 2.87623e-05 0)
(1.06504 5.04579e-05 0)
(1.06502 0.000104189 0)
(1.06499 0.000348067 0)
(1.06489 0.000942726 0)
(1.06481 0.00282195 0)
(1.06409 0.00453658 0)
(0.999637 0.0804212 0)
(1.07353 0.0496721 0)
(1.0565 0.020094 0)
(1.06874 0.00292535 0)
(1.06345 -0.000761887 0)
(1.06564 -0.000618891 0)
(1.06466 4.21152e-05 0)
(1.06517 0.000460312 0)
(1.06506 0.000567227 0)
(1.06522 0.00056244 0)
(1.06525 0.000501078 0)
(1.06532 0.000436731 0)
(1.06536 0.000374665 0)
(1.0654 0.000320562 0)
(1.06542 0.000272463 0)
(1.06545 0.000230874 0)
(1.06547 0.000194765 0)
(1.06548 0.000163151 0)
(1.06549 0.000135719 0)
(1.0655 0.000112126 0)
(1.06551 9.16563e-05 0)
(1.06551 7.43367e-05 0)
(1.06552 5.97616e-05 0)
(1.06552 4.75686e-05 0)
(1.06552 3.75175e-05 0)
(1.06552 2.93901e-05 0)
(1.06553 2.2781e-05 0)
(1.06553 1.75475e-05 0)
(1.06553 1.33491e-05 0)
(1.06553 1.01019e-05 0)
(1.06553 7.64501e-06 0)
(1.06553 5.82449e-06 0)
(1.06553 4.44045e-06 0)
(1.06553 3.48903e-06 0)
(1.06553 2.69972e-06 0)
(1.06553 2.1761e-06 0)
(1.06553 1.74547e-06 0)
(1.06553 1.48407e-06 0)
(1.06553 1.30145e-06 0)
(1.06553 1.16562e-06 0)
(1.06553 1.03438e-06 0)
(1.06553 9.62817e-07 0)
(1.06553 8.91251e-07 0)
(1.06553 8.06509e-07 0)
(1.06553 6.47919e-07 0)
(1.06553 6.07445e-07 0)
(1.06553 5.08914e-07 0)
(1.06553 4.59612e-07 0)
(1.06553 3.82939e-07 0)
(1.06553 4.4857e-07 0)
(1.06553 4.6029e-07 0)
(1.06553 4.93039e-07 0)
(1.06553 5.60571e-07 0)
(1.06553 6.49811e-07 0)
(1.06553 7.20209e-07 0)
(1.06553 8.6522e-07 0)
(1.06553 8.796e-07 0)
(1.06553 8.73183e-07 0)
(1.06553 7.74307e-07 0)
(1.06553 7.47003e-07 0)
(1.06553 6.09163e-07 0)
(1.06553 5.92621e-07 0)
(1.06553 5.57726e-07 0)
(1.06553 5.87155e-07 0)
(1.06553 5.7413e-07 0)
(1.06553 5.97514e-07 0)
(1.06553 5.85267e-07 0)
(1.06553 5.78344e-07 0)
(1.06553 5.24392e-07 0)
(1.06553 5.36207e-07 0)
(1.06553 5.47762e-07 0)
(1.06553 6.11016e-07 0)
(1.06553 6.51093e-07 0)
(1.06553 7.31367e-07 0)
(1.06553 7.277e-07 0)
(1.06553 7.53437e-07 0)
(1.06553 7.22514e-07 0)
(1.06553 7.41231e-07 0)
(1.06553 7.421e-07 0)
(1.06553 8.12145e-07 0)
(1.06553 8.99011e-07 0)
(1.06553 1.02802e-06 0)
(1.06553 1.19009e-06 0)
(1.06553 1.4695e-06 0)
(1.06553 1.83433e-06 0)
(1.06553 2.39641e-06 0)
(1.06553 3.18177e-06 0)
(1.06553 4.3159e-06 0)
(1.06553 5.88414e-06 0)
(1.06553 8.02595e-06 0)
(1.06553 1.1061e-05 0)
(1.06553 1.4984e-05 0)
(1.06553 2.0981e-05 0)
(1.06553 2.90279e-05 0)
(1.06552 5.2514e-05 0)
(1.06551 0.000108487 0)
(1.06549 0.000357662 0)
(1.06548 0.000955068 0)
(1.06551 0.00286052 0)
(1.06553 0.00458636 0)
(0.996676 0.0694838 0)
(1.06975 0.0455756 0)
(1.05599 0.018955 0)
(1.06853 0.00281605 0)
(1.06337 -0.000710132 0)
(1.06545 -0.000610458 0)
(1.06445 3.27048e-05 0)
(1.06498 0.000433768 0)
(1.06492 0.000540469 0)
(1.06513 0.000536983 0)
(1.0652 0.000479455 0)
(1.06531 0.000418384 0)
(1.06539 0.000359469 0)
(1.06546 0.00030794 0)
(1.06551 0.000261993 0)
(1.06556 0.000222193 0)
(1.0656 0.000187641 0)
(1.06563 0.000157333 0)
(1.06566 0.000131003 0)
(1.06568 0.000108313 0)
(1.06569 8.85897e-05 0)
(1.06571 7.18681e-05 0)
(1.06572 5.77721e-05 0)
(1.06573 4.59667e-05 0)
(1.06573 3.62189e-05 0)
(1.06574 2.83219e-05 0)
(1.06574 2.18983e-05 0)
(1.06574 1.67917e-05 0)
(1.06574 1.26875e-05 0)
(1.06575 9.51531e-06 0)
(1.06575 7.10805e-06 0)
(1.06575 5.33121e-06 0)
(1.06575 3.98766e-06 0)
(1.06575 3.06494e-06 0)
(1.06575 2.30036e-06 0)
(1.06575 1.80017e-06 0)
(1.06575 1.38848e-06 0)
(1.06575 1.14738e-06 0)
(1.06575 9.8198e-07 0)
(1.06575 8.47319e-07 0)
(1.06575 7.20097e-07 0)
(1.06575 6.40605e-07 0)
(1.06575 5.63546e-07 0)
(1.06575 4.77427e-07 0)
(1.06575 3.04222e-07 0)
(1.06575 2.47011e-07 0)
(1.06575 1.51688e-07 0)
(1.06575 1.04783e-07 0)
(1.06575 2.35546e-08 0)
(1.06575 8.26635e-08 0)
(1.06575 1.00504e-07 0)
(1.06575 1.33295e-07 0)
(1.06575 2.00591e-07 0)
(1.06575 3.03622e-07 0)
(1.06575 3.80836e-07 0)
(1.06575 5.24811e-07 0)
(1.06575 5.4804e-07 0)
(1.06575 5.43545e-07 0)
(1.06575 4.44345e-07 0)
(1.06575 4.17833e-07 0)
(1.06575 2.80118e-07 0)
(1.06575 2.60301e-07 0)
(1.06575 2.29595e-07 0)
(1.06575 2.5735e-07 0)
(1.06575 2.40357e-07 0)
(1.06575 2.58994e-07 0)
(1.06575 2.47054e-07 0)
(1.06575 2.39039e-07 0)
(1.06575 1.80619e-07 0)
(1.06575 1.84263e-07 0)
(1.06575 1.97328e-07 0)
(1.06575 2.6291e-07 0)
(1.06575 3.04016e-07 0)
(1.06575 3.8494e-07 0)
(1.06575 3.85862e-07 0)
(1.06575 4.15663e-07 0)
(1.06575 3.88302e-07 0)
(1.06575 4.07298e-07 0)
(1.06575 4.08031e-07 0)
(1.06575 4.72802e-07 0)
(1.06575 5.60465e-07 0)
(1.06575 6.85396e-07 0)
(1.06575 8.41994e-07 0)
(1.06575 1.11451e-06 0)
(1.06575 1.46419e-06 0)
(1.06575 1.99247e-06 0)
(1.06575 2.73864e-06 0)
(1.06575 3.82806e-06 0)
(1.06575 5.34379e-06 0)
(1.06575 7.42705e-06 0)
(1.06575 1.04052e-05 0)
(1.06576 1.43256e-05 0)
(1.06576 2.04743e-05 0)
(1.06576 2.89655e-05 0)
(1.06576 5.33693e-05 0)
(1.06576 0.000109733 0)
(1.06575 0.000356653 0)
(1.06583 0.000940364 0)
(1.06596 0.00281308 0)
(1.06669 0.00449754 0)
(0.994258 0.0594473 0)
(1.06649 0.0410324 0)
(1.05545 0.0174667 0)
(1.06825 0.00264374 0)
(1.06322 -0.000649908 0)
(1.06519 -0.000585416 0)
(1.06416 2.3716e-05 0)