/*--------------------------------*- C++ -*----------------------------------*\
| =========                 |                                                 |
| \\      /  F ield         | OpenFOAM: The Open Source CFD Toolbox           |
|  \\    /   O peration     | Version:  v1906                                 |
|   \\  /    A nd           | Web:      www.OpenFOAM.com                      |
|    \\/     M anipulation  |                                                 |
\*---------------------------------------------------------------------------*/
FoamFile
{
    version     2.0;
    format      ascii;
    class       volScalarField;
    location    "1";
    object      Uy;
}
// * * * * * * * * * * * * * * * * * * * * * * * * * * * * * * * * * * * * * //

dimensions      [0 1 -1 0 0 0 0];


internalField   nonuniform List<scalar> 
4000
(
0.0295851
-0.0014323
-0.00217363
-0.00196797
-0.00213339
-0.002036
-0.0021073
-0.00206888
-0.00209865
-0.00208405
-0.00209637
-0.00209097
-0.00209592
-0.00209386
-0.00209584
-0.00209505
-0.0020958
-0.00209548
-0.00209577
-0.00209564
-0.00209576
-0.0020957
-0.00209573
-0.00209573
-0.00209574
-0.00209573
-0.00209573
-0.00209573
-0.00209574
-0.00209574
-0.00209573
-0.00209573
-0.00209573
-0.00209573
-0.00209574
-0.00209573
-0.00209573
-0.00209574
-0.00209573
-0.00209573
-0.00209573
-0.00209573
-0.00209573
-0.00209573
-0.00209573
-0.00209573
-0.00209574
-0.00209573
-0.00209573
-0.00209574
-0.00209573
-0.00209573
-0.00209573
-0.00209573
-0.00209573
-0.00209573
-0.00209573
-0.00209573
-0.00209573
-0.00209573
-0.00209573
-0.00209574
-0.00209573
-0.00209573
-0.00209573
-0.00209573
-0.00209573
-0.00209573
-0.00209573
-0.00209573
-0.00209573
-0.00209573
-0.00209573
-0.00209573
-0.00209573
-0.00209573
-0.00209573
-0.00209573
-0.00209573
-0.00209574
-0.00209573
-0.00209573
-0.00209574
-0.00209573
-0.00209573
-0.00209573
-0.00209573
-0.00209573
-0.00209573
-0.00209573
-0.00209572
-0.00209571
-0.00209567
-0.00209564
-0.00209551
-0.00209549
-0.00209519
-0.00209627
-0.00208523
-0.00211063
0.0707464
0.0020599
-0.000815737
0.000297258
-0.00054241
-3.64573e-05
-0.000394345
-0.00019672
-0.000345149
-0.000269563
-0.000330744
-0.000303007
-0.000327223
-0.000316627
-0.000326284
-0.00032214
-0.000325896
-0.000324217
-0.000325682
-0.000325008
-0.000325572
-0.000325297
-0.000325482
-0.00032541
-0.000325493
-0.00032543
-0.000325465
-0.000325457
-0.00032547
-0.000325462
-0.000325446
-0.000325452
-0.000325453
-0.000325457
-0.000325464
-0.000325456
-0.000325449
-0.000325466
-0.000325451
-0.000325443
-0.000325446
-0.000325449
-0.000325446
-0.000325458
-0.000325446
-0.000325454
-0.000325458
-0.000325454
-0.00032545
-0.00032546
-0.000325452
-0.00032546
-0.000325459
-0.000325457
-0.000325458
-0.000325457
-0.000325456
-0.000325457
-0.000325457
-0.000325457
-0.000325457
-0.00032546
-0.000325456
-0.000325457
-0.000325455
-0.000325451
-0.000325452
-0.000325453
-0.000325447
-0.000325457
-0.000325448
-0.000325456
-0.000325452
-0.000325455
-0.000325453
-0.000325456
-0.000325453
-0.000325456
-0.000325455
-0.000325459
-0.000325457
-0.000325456
-0.000325459
-0.000325454
-0.000325454
-0.000325453
-0.000325449
-0.000325451
-0.000325442
-0.000325435
-0.000325401
-0.000325373
-0.000325243
-0.000325125
-0.000324669
-0.000324594
-0.000323058
-0.000326462
-0.000280614
-0.000284527
0.0785098
0.00396888
-0.000257114
0.00150426
9.67266e-05
0.00094381
0.000332174
0.000658975
0.000410201
0.000533145
0.000430283
0.000475076
0.000433716
0.000450629
0.000434062
0.000440656
0.000434159
0.000436837
0.000434311
0.000435397
0.000434438
0.000434858
0.000434547
0.000434685
0.000434523
0.000434619
0.000434561
0.000434576
0.000434566
0.000434572
0.000434597
0.000434599
0.000434589
0.000434581
0.000434571
0.000434574
0.000434601
0.000434577
0.000434592
0.000434611
0.000434608
0.000434597
0.000434602
0.00043458
0.000434597
0.000434591
0.000434582
0.000434586
0.000434599
0.000434576
0.000434585
0.000434574
0.000434574
0.000434576
0.000434581
0.000434577
0.000434588
0.000434583
0.000434583
0.00043458
0.000434582
0.000434574
0.000434582
0.000434578
0.000434586
0.000434592
0.000434593
0.000434591
0.000434599
0.000434584
0.000434594
0.000434582
0.000434587
0.000434583
0.000434586
0.000434582
0.000434587
0.000434584
0.000434584
0.000434576
0.000434582
0.000434579
0.00043458
0.000434584
0.000434588
0.000434588
0.000434596
0.000434594
0.000434612
0.000434626
0.000434689
0.000434753
0.000434993
0.000435234
0.00043612
0.000436272
0.00043994
0.000433948
0.00053122
0.000668069
0.0744786
0.00422185
-0.000484447
0.00156577
-0.000153922
0.000884096
0.000116771
0.000522936
0.000207095
0.000355454
0.000225849
0.000279514
0.00022638
0.000246316
0.000224913
0.00023261
0.000224226
0.000227349
0.000224084
0.00022536
0.000224155
0.000224626
0.000224214
0.000224405
0.000224194
0.000224301
0.000224225
0.00022424
0.000224245
0.000224249
0.00022427
0.000224282
0.000224265
0.000224258
0.00022425
0.000224237
0.000224285
0.000224265
0.000224274
0.000224302
0.000224298
0.00022428
0.000224289
0.000224256
0.000224273
0.000224274
0.000224265
0.000224262
0.000224285
0.000224252
0.000224259
0.000224244
0.000224241
0.000224243
0.000224254
0.000224245
0.000224266
0.000224258
0.000224258
0.000224253
0.000224254
0.000224242
0.000224255
0.000224248
0.000224262
0.000224271
0.000224274
0.000224272
0.000224281
0.000224261
0.000224271
0.000224256
0.000224261
0.000224253
0.000224261
0.000224256
0.000224263
0.00022426
0.00022426
0.000224248
0.000224256
0.00022425
0.000224255
0.000224257
0.000224265
0.000224267
0.000224277
0.000224277
0.000224302
0.000224325
0.000224416
0.000224518
0.000224866
0.000225228
0.00022655
0.000226764
0.000233084
0.00022477
0.00038554
0.000699564
0.0691879
0.00419964
-0.000661364
0.00153124
-0.000354904
0.000791749
-6.19219e-05
0.000391885
3.08763e-05
0.000196838
4.63196e-05
0.000106303
4.3287e-05
6.52903e-05
3.97287e-05
4.79142e-05
3.81051e-05
4.14352e-05
3.76109e-05
3.89737e-05
3.75833e-05
3.80717e-05
3.75861e-05
3.78093e-05
3.75585e-05
3.76713e-05
3.75841e-05
3.75949e-05
3.76134e-05
3.76149e-05
3.7634e-05
3.76556e-05
3.7632e-05
3.76235e-05
3.76182e-05
3.75895e-05
3.7658e-05
3.76392e-05
3.76425e-05
3.768e-05
3.76777e-05
3.76504e-05
3.76639e-05
3.76233e-05
3.76403e-05
3.76455e-05
3.76381e-05
3.76287e-05
3.76603e-05
3.76178e-05
3.76214e-05
3.76045e-05
3.75973e-05
3.7601e-05
3.76192e-05
3.76031e-05
3.7636e-05
3.76241e-05
3.76228e-05
3.76166e-05
3.76171e-05
3.7601e-05
3.76173e-05
3.76083e-05
3.76278e-05
3.76396e-05
3.76462e-05
3.76429e-05
3.76534e-05
3.76289e-05
3.76378e-05
3.76186e-05
3.76239e-05
3.76137e-05
3.76254e-05
3.76197e-05
3.76291e-05
3.76274e-05
3.76265e-05
3.76107e-05
3.76218e-05
3.76115e-05
3.76198e-05
3.76208e-05
3.76317e-05
3.76354e-05
3.76474e-05
3.76495e-05
3.76828e-05
3.77123e-05
3.78289e-05
3.79637e-05
3.84058e-05
3.88753e-05
4.05973e-05
4.08425e-05
5.00118e-05
3.96283e-05
0.000263121
0.000725704
0.0641924
0.00423015
-0.000686997
0.00159745
-0.000403942
0.000819777
-9.04796e-05
0.000388832
3.7322e-06
0.000180033
1.58686e-05
7.8995e-05
9.48969e-06
3.23047e-05
3.93248e-06
1.2366e-05
1.33027e-06
4.82875e-06
4.6996e-07
1.89368e-06
3.32693e-07
8.23618e-07
2.74115e-07
5.21876e-07
2.41251e-07
3.53993e-07
2.60449e-07
2.63448e-07
2.96742e-07
2.97835e-07
3.10399e-07
3.42181e-07
3.1221e-07
3.01324e-07
3.01626e-07
2.56421e-07
3.41575e-07
3.2836e-07
3.25676e-07
3.70333e-07
3.70635e-07
3.34851e-07
3.5208e-07
3.05329e-07
3.21446e-07
3.30729e-07
3.27625e-07
3.09706e-07
3.48768e-07
2.99249e-07
2.97886e-07
2.78927e-07
2.68407e-07
2.72248e-07
2.98776e-07
2.76686e-07
3.19038e-07
3.05297e-07
3.01851e-07
2.94128e-07
2.93165e-07
2.73245e-07
2.94028e-07
2.8312e-07
3.08671e-07
3.23011e-07
3.33706e-07
3.29392e-07
3.40999e-07
3.11448e-07
3.19421e-07
2.96482e-07
3.01435e-07
2.88456e-07
3.0413e-07
2.98639e-07
3.10204e-07
3.09211e-07
3.0889e-07
2.89074e-07
3.01955e-07
2.87875e-07
2.98422e-07
2.99192e-07
3.12376e-07
3.17788e-07
3.32219e-07
3.35975e-07
3.76288e-07
4.11684e-07
5.48721e-07
7.11769e-07
1.23134e-06
1.81392e-06
3.94863e-06
4.20158e-06
1.62515e-05
3.87291e-06
0.000277905
0.000851765
0.0592638
0.0042264
-0.000663787
0.0016686
-0.000400728
0.000871591
-8.0968e-05
0.000416995
1.46837e-05
0.000195494
2.35884e-05
8.67788e-05
1.42286e-05
3.6664e-05
6.87283e-06
1.53561e-05
3.32093e-06
6.93418e-06
2.12319e-06
3.53583e-06
1.87224e-06
2.35459e-06
1.75804e-06
2.02087e-06
1.7168e-06
1.82568e-06
1.73135e-06
1.72412e-06
1.77075e-06
1.77252e-06
1.77782e-06
1.81967e-06
1.78388e-06
1.76862e-06
1.77634e-06
1.71593e-06
1.81415e-06
1.80812e-06
1.79953e-06
1.85033e-06
1.85419e-06
1.80997e-06
1.83014e-06
1.77951e-06
1.79473e-06
1.80627e-06
1.80918e-06
1.78229e-06
1.82706e-06
1.77247e-06
1.76478e-06
1.7447e-06
1.73136e-06
1.73449e-06
1.77034e-06
1.74284e-06
1.79281e-06
1.77821e-06
1.77205e-06
1.76279e-06
1.76001e-06
1.73634e-06
1.76196e-06
1.74954e-06
1.78147e-06
1.7979e-06
1.81331e-06
1.80792e-06
1.82022e-06
1.78597e-06
1.79248e-06
1.76625e-06
1.77032e-06
1.75489e-06
1.77428e-06
1.76972e-06
1.78293e-06
1.78271e-06
1.78323e-06
1.75946e-06
1.77387e-06
1.75611e-06
1.76832e-06
1.76908e-06
1.7842e-06
1.79099e-06
1.80805e-06
1.81289e-06
1.85942e-06
1.89937e-06
2.0524e-06
2.23741e-06
2.81716e-06
3.46723e-06
6.0156e-06
6.26094e-06
2.10515e-05
6.8387e-06
0.000322654
0.000984823
0.0543712
0.00414331
-0.000636723
0.00169735
-0.000388743
0.000901845
-7.1173e-05
0.000435559
2.30597e-05
0.00020566
2.88841e-05
9.18298e-05
1.69899e-05
3.90062e-05
8.14565e-06
1.64155e-05
3.88711e-06
7.38977e-06
2.35903e-06
3.72848e-06
1.99662e-06
2.46383e-06
1.83301e-06
2.10222e-06
1.78254e-06
1.88387e-06
1.79344e-06
1.77429e-06
1.83262e-06
1.83641e-06
1.83367e-06
1.88453e-06
1.8441e-06
1.82353e-06
1.83989e-06
1.76594e-06
1.8735e-06
1.87618e-06
1.86236e-06
1.91759e-06
1.92587e-06
1.87387e-06
1.89602e-06
1.84329e-06
1.85773e-06
1.86956e-06
1.8796e-06
1.84382e-06
1.89218e-06
1.8346e-06
1.81962e-06
1.79893e-06
1.78375e-06
1.7852e-06
1.831e-06
1.79886e-06
1.85453e-06
1.83989e-06
1.83076e-06
1.81987e-06
1.81505e-06
1.78779e-06
1.81857e-06
1.80495e-06
1.84343e-06
1.86151e-06
1.8822e-06
1.87577e-06
1.88829e-06
1.84974e-06
1.8545e-06
1.82543e-06
1.8282e-06
1.81042e-06
1.83321e-06
1.83007e-06
1.8445e-06
1.84485e-06
1.84661e-06
1.81897e-06
1.83453e-06
1.81348e-06
1.82672e-06
1.82775e-06
1.84452e-06
1.85232e-06
1.87217e-06
1.87754e-06
1.92921e-06
1.97228e-06
2.13676e-06
2.34006e-06
2.96555e-06
3.66324e-06
6.46486e-06
6.68209e-06
2.38021e-05
8.12231e-06
0.000357058
0.00108289
0.0495771
0.0039905
-0.000608914
0.00168413
-0.000372702
0.000908193
-6.24301e-05
0.000441952
2.85799e-05
0.000209547
3.16343e-05
9.34167e-05
1.77355e-05
3.90369e-05
7.76535e-06
1.56167e-05
3.05394e-06
6.27921e-06
1.27197e-06
2.5753e-06
7.95036e-07
1.25533e-06
5.9026e-07
8.58669e-07
5.30285e-07
6.21221e-07
5.38776e-07
5.06817e-07
5.74258e-07
5.81243e-07
5.70608e-07
6.29019e-07
5.85315e-07
5.58519e-07
5.84474e-07
4.99103e-07
6.12155e-07
6.24388e-07
6.0666e-07
6.64311e-07
6.77439e-07
6.18679e-07
6.41971e-07
5.88552e-07
6.02942e-07
6.12893e-07
6.31139e-07
5.86687e-07
6.36577e-07
5.77765e-07
5.55083e-07
5.3422e-07
5.1822e-07
5.16838e-07
5.72803e-07
5.37143e-07
5.9654e-07
5.82515e-07
5.70244e-07
5.57694e-07
5.50799e-07
5.20147e-07
5.56116e-07
5.41856e-07
5.86734e-07
6.06037e-07
6.32344e-07
6.25097e-07
6.37658e-07
5.94794e-07
5.97689e-07
5.66065e-07
5.67379e-07
5.47496e-07
5.73159e-07
5.7187e-07
5.87112e-07
5.87768e-07
5.90955e-07
5.59771e-07
5.76044e-07
5.52155e-07
5.65853e-07
5.67283e-07
5.85646e-07
5.93975e-07
6.1694e-07
6.22423e-07
6.78213e-07
7.23021e-07
8.95033e-07
1.12099e-06
1.78597e-06
2.50724e-06
5.38094e-06
5.55536e-06
2.44637e-05
7.73465e-06
0.000378722
0.00114294
0.044901
0.0037834
-0.000577455
0.00163664
-0.000351813
0.000894729
-5.33239e-05
0.000438637
3.32826e-05
0.00020915
3.397e-05
9.34635e-05
1.86287e-05
3.8867e-05
7.85986e-06
1.52025e-05
2.79946e-06
5.75924e-06
8.84255e-07
2.05788e-06
3.27543e-07
7.59127e-07
9.04901e-08
3.53378e-07
2.24762e-08
1.00446e-07
2.78368e-08
-1.6773e-08
5.70618e-08
6.83073e-08
5.02047e-08
1.14081e-07
6.88392e-08
3.63913e-08
7.13433e-08
-2.13099e-08
9.18145e-08
1.14055e-07
9.41317e-08
1.52075e-07
1.71215e-07
1.06089e-07
1.29773e-07
7.65447e-08
9.20587e-08
9.80099e-08
1.25621e-07
7.24537e-08
1.21923e-07
6.33188e-08
3.30146e-08
1.29109e-08
-3.60485e-09
-8.81874e-09
5.69869e-08
1.90341e-08
8.14754e-08
6.74495e-08
5.20476e-08
3.76131e-08
2.92399e-08
-3.41572e-09
3.60753e-08
2.27309e-08
7.26342e-08
9.293e-08
1.26226e-07
1.18362e-07
1.31015e-07
8.24379e-08
8.34565e-08
4.94623e-08
4.9445e-08
2.84674e-08
5.5619e-08
5.63842e-08
7.21771e-08
7.27308e-08
7.75456e-08
4.31731e-08
5.97081e-08
3.43643e-08
4.71792e-08
4.91373e-08
6.89649e-08
7.76863e-08
1.05198e-07
1.10506e-07
1.69761e-07
2.15007e-07
3.89485e-07
6.20679e-07
1.29663e-06
1.98798e-06
4.89653e-06
5.02781e-06
2.52114e-05
7.81228e-06
0.000389515
0.00116839
0.0403327
0.00353194
-0.000541475
0.00155984
-0.000326799
0.000863558
-4.43135e-05
0.000426388
3.68686e-05
0.000204568
3.56287e-05
9.1865e-05
1.94318e-05
3.83254e-05
8.21058e-06
1.4981e-05
2.91092e-06
5.62624e-06
8.99237e-07
1.95056e-06
3.03722e-07
6.83575e-07
4.54115e-08
2.96855e-07
-2.68976e-08
3.58561e-08
-2.39633e-08
-7.98819e-08
-2.68367e-09
1.36426e-08
-1.1352e-08
5.56634e-08
1.06524e-08
-2.81501e-08
1.66542e-08
-8.24873e-08
2.9114e-08
6.12997e-08
4.07771e-08
9.72603e-08
1.21267e-07
5.2252e-08
7.60036e-08
2.29783e-08
4.01774e-08
4.13687e-08
7.77224e-08
1.71213e-08
6.49569e-08
7.57387e-09
-2.97673e-08
-5.09953e-08
-6.52171e-08
-7.50159e-08
-2.31413e-10
-3.92179e-08
2.37166e-08
1.10014e-08
-7.56857e-09
-2.409e-08
-3.3611e-08
-6.92531e-08
-2.5112e-08
-3.80936e-08
1.71547e-08
3.86326e-08
7.73602e-08
6.90156e-08
8.14803e-08
2.88556e-08
2.81553e-08
-8.23114e-09
-9.17724e-09
-3.21866e-08
-2.94065e-09
-6.73725e-11
1.56778e-08
1.57456e-08
2.2213e-08
-1.44515e-08
1.85123e-09
-2.50719e-08
-1.27926e-08
-1.03269e-08
1.06837e-08
1.97152e-08
4.9963e-08
5.47288e-08
1.15417e-07
1.59448e-07
3.30783e-07
5.48436e-07
1.20632e-06
1.87645e-06
4.80705e-06
4.8986e-06
2.5792e-05
8.14514e-06
0.000389732
0.00116152
0.0358572
0.00324332
-0.000500906
0.00145748
-0.000298687
0.000816142
-3.59991e-05
0.000405598
3.88384e-05
0.000195695
3.61311e-05
8.83112e-05
1.96773e-05
3.70066e-05
8.3791e-06
1.45147e-05
3.00977e-06
5.46255e-06
9.51541e-07
1.88892e-06
3.28141e-07
6.67833e-07
6.00062e-08
2.94035e-07
-1.26784e-08
3.31937e-08
-1.09867e-08
-7.69384e-08
8.05873e-10
2.28563e-08
-7.71059e-09
5.9211e-08
1.7091e-08
-2.92707e-08
2.57937e-08
-7.87208e-08
3.01598e-08
7.17447e-08
5.27291e-08
1.05723e-07
1.33099e-07
6.2664e-08
8.63509e-08
3.39615e-08
5.24451e-08
4.89853e-08
9.26602e-08
2.6807e-08
7.16314e-08
1.60717e-08
-2.72097e-08
-5.2119e-08
-6.11272e-08
-7.58893e-08
6.68791e-09
-3.18731e-08
2.8966e-08
1.88251e-08
-2.51594e-09
-2.15973e-08
-3.20537e-08
-7.16552e-08
-2.17315e-08
-3.51179e-08
2.60561e-08
4.89076e-08
9.10466e-08
8.23033e-08
9.43168e-08
3.95439e-08
3.73122e-08
-1.36761e-09
-2.83593e-09
-2.89735e-08
3.09616e-09
8.01417e-09
2.37105e-08
2.29802e-08
3.10421e-08
-7.43962e-09
8.26492e-09
-2.05903e-08
-8.31647e-09
-5.37279e-09
1.66961e-08
2.58445e-08
5.66069e-08
6.04854e-08
1.20386e-07
1.61546e-07
3.25766e-07
5.33588e-07
1.16771e-06
1.81219e-06
4.70042e-06
4.75552e-06
2.57216e-05
8.2988e-06
0.000379548
0.00112444
0.0314619
0.00292385
-0.000455707
0.00133314
-0.000268167
0.000754134
-2.86146e-05
0.000376934
3.90794e-05
0.00018276
3.53705e-05
8.28214e-05
1.92464e-05
3.48386e-05
8.24644e-06
1.36993e-05
2.99132e-06
5.15996e-06
9.58095e-07
1.77768e-06
3.28913e-07
6.31441e-07
6.10642e-08
2.74398e-07
-9.40037e-09
1.90064e-08
-9.37199e-09
-8.40852e-08
-7.71424e-09
1.98857e-08
-1.392e-08
4.94959e-08
1.29789e-08
-4.0759e-08
2.23435e-08
-8.2488e-08
1.93842e-08
6.93401e-08
5.48161e-08
1.01774e-07
1.32652e-07
6.12514e-08
8.46131e-08
3.43293e-08
5.34789e-08
4.52762e-08
9.56401e-08
2.63004e-08
6.62071e-08
1.2558e-08
-3.51502e-08
-6.41591e-08
-6.7713e-08
-8.73103e-08
1.54655e-09
-3.49017e-08
2.33075e-08
1.47468e-08
-8.05412e-09
-3.07046e-08
-4.16225e-08
-8.36546e-08
-2.98577e-08
-4.23549e-08
2.38208e-08
4.77381e-08
9.35729e-08
8.44965e-08
9.63732e-08
3.83516e-08
3.47795e-08
-5.91495e-09
-7.6626e-09
-3.60577e-08
-2.42685e-09
4.48084e-09
2.11722e-08
1.92449e-08
2.87402e-08
-1.18922e-08
3.074e-09
-2.67847e-08
-1.54488e-08
-1.18518e-08
1.15913e-08
2.03657e-08
5.2246e-08
5.50675e-08
1.13304e-07
1.5036e-07
3.03925e-07
4.99463e-07
1.09844e-06
1.70237e-06
4.46865e-06
4.49214e-06
2.48749e-05
8.15587e-06
0.000359566
0.00105965
0.0271352
0.00257905
-0.000405925
0.00119021
-0.000235707
0.000679305
-2.22086e-05
0.000341228
3.76641e-05
0.000166146
3.34073e-05
7.55623e-05
1.81691e-05
3.18897e-05
7.82435e-06
1.25635e-05
2.85757e-06
4.73036e-06
9.23045e-07
1.6207e-06
3.15222e-07
5.80104e-07
5.86126e-08
2.47983e-07
-7.26184e-09
4.20629e-09
-8.64809e-09
-9.00028e-08
-1.69229e-08
1.55048e-08
-1.89321e-08
3.80916e-08
8.75683e-09
-5.16185e-08
1.72345e-08
-8.42587e-08
8.5736e-09
6.51116e-08
5.74186e-08
9.65845e-08
1.30331e-07
5.90993e-08
8.19187e-08
3.44007e-08
5.41484e-08
4.11671e-08
9.74358e-08
2.59821e-08
6.00775e-08
7.9311e-09
-4.22812e-08
-7.63678e-08
-7.40313e-08
-9.77935e-08
-4.51286e-09
-3.73951e-08
1.71906e-08
9.8125e-09
-1.32836e-08
-4.0289e-08
-5.12944e-08
-9.51028e-08
-3.82294e-08
-4.92674e-08
2.12057e-08
4.62945e-08
9.50573e-08
8.56557e-08
9.78425e-08
3.63998e-08
3.18547e-08
-1.08258e-08
-1.25671e-08
-4.27196e-08
-8.22453e-09
5.93608e-10
1.85628e-08
1.51259e-08
2.60829e-08
-1.66345e-08
-2.51949e-09
-3.31176e-08
-2.28772e-08
-1.8671e-08
6.29555e-09
1.45171e-08
4.70076e-08
4.86474e-08
1.04196e-07
1.35878e-07
2.75344e-07
4.53034e-07
1.00274e-06
1.55199e-06
4.12173e-06
4.12027e-06
2.32818e-05
7.72799e-06
0.000330647
0.000970008
0.0228664
0.00221372
-0.000351784
0.0010318
-0.000201692
0.00059342
-1.67657e-05
0.000299356
3.47184e-05
0.00014628
3.03393e-05
6.67281e-05
1.64978e-05
2.82442e-05
7.13717e-06
1.11445e-05
2.61908e-06
4.19099e-06
8.5156e-07
1.42594e-06
2.90868e-07
5.18038e-07
5.66638e-08
2.18795e-07
-2.69265e-09
-7.42503e-09
-5.40385e-09
-9.10832e-08
-2.32827e-08
1.30658e-08
-1.95285e-08
2.81047e-08
7.69342e-09
-5.73504e-08
1.40509e-08
-8.04772e-08
1.94881e-09
6.29355e-08
6.34199e-08
9.37153e-08
1.30186e-07
6.00303e-08
8.20591e-08
3.72139e-08
5.79206e-08
4.03296e-08
1.01519e-07
2.88728e-08
5.71181e-08
5.87998e-09
-4.47883e-08
-8.48173e-08
-7.64026e-08
-1.03322e-07
-7.67664e-09
-3.58552e-08
1.48116e-08
7.6638e-09
-1.48448e-08
-4.64306e-08
-5.70853e-08
-1.01967e-07
-4.28922e-08
-5.20234e-08
2.14866e-08
4.82634e-08
9.94405e-08
8.95364e-08
1.02298e-07
3.74254e-08
3.22154e-08
-1.24133e-08
-1.37775e-08
-4.52043e-08
-1.04301e-08
1.10555e-10
1.89489e-08
1.39258e-08
2.63763e-08
-1.79117e-08
-4.755e-09
-3.55837e-08
-2.65902e-08
-2.20355e-08
4.08125e-09
1.22365e-08
4.47306e-08
4.497e-08
9.67087e-08
1.21758e-07
2.43953e-07
3.98801e-07
8.86442e-07
1.36958e-06
3.67515e-06
3.65635e-06
2.09989e-05
7.03862e-06
0.000293772
0.000858517
0.0186456
0.00183196
-0.000293686
0.000860742
-0.000166453
0.000498217
-1.22268e-05
0.000252218
3.04032e-05
0.00012361
2.62851e-05
5.65258e-05
1.42938e-05
2.39894e-05
6.20974e-06
9.47599e-06
2.28465e-06
3.55387e-06
7.45363e-07
1.19695e-06
2.5466e-07
4.45032e-07
5.34407e-08
1.85569e-07
1.7851e-09
-1.78588e-08
-1.44584e-09
-8.94795e-08
-2.85238e-08
1.03149e-08
-1.76967e-08
1.77944e-08
7.96299e-09
-5.95997e-08
1.06854e-08
-7.38366e-08
-2.0598e-09
6.08388e-08
7.09013e-08
9.11889e-08
1.30113e-07
6.1961e-08
8.28812e-08
4.08836e-08
6.26498e-08
4.0835e-08
1.05762e-07
3.28568e-08
5.55407e-08
4.30341e-09
-4.48511e-08
-9.13466e-08
-7.71035e-08
-1.0583e-07
-1.00082e-08
-3.24957e-08
1.41344e-08
6.19669e-09
-1.46752e-08
-5.08722e-08
-6.10603e-08
-1.06454e-07
-4.58621e-08
-5.27427e-08
2.27252e-08
5.14036e-08
1.04499e-07
9.38512e-08
1.07488e-07
3.93765e-08
3.3827e-08
-1.26857e-08
-1.34196e-08
-4.56106e-08
-1.10881e-08
1.04418e-09
2.04382e-08
1.38233e-08
2.75127e-08
-1.78284e-08
-5.60149e-09
-3.63652e-08
-2.85677e-08
-2.38519e-08
3.03376e-09
1.14727e-08
4.32987e-08
4.19198e-08
8.89141e-08
1.06189e-07
2.08407e-07
3.36417e-07
7.51026e-07
1.15859e-06
3.13929e-06
3.1109e-06
1.80947e-05
6.11163e-06
0.000250013
0.000728319
0.014463
0.0014374
-0.000232168
0.000679631
-0.000130275
0.000395411
-8.4894e-06
0.000200735
2.49156e-05
9.86111e-05
2.13883e-05
4.51793e-05
1.16321e-05
1.92214e-05
5.07372e-06
7.59568e-06
1.86622e-06
2.83273e-06
6.07872e-07
9.38089e-07
2.06875e-07
3.61477e-07
4.81931e-08
1.48079e-07
4.79832e-09
-2.83459e-08
1.90584e-09
-8.6664e-08
-3.35874e-08
5.88939e-09
-1.44791e-08
6.65295e-09
8.06927e-09
-5.92757e-08
6.056e-09
-6.5974e-08
-4.48584e-09
5.76359e-08
7.84681e-08
8.79017e-08
1.2897e-07
6.36823e-08
8.30468e-08
4.42815e-08
6.69383e-08
4.14355e-08
1.088e-07
3.66954e-08
5.42312e-08
1.96836e-09
-4.38521e-08
-9.70111e-08
-7.75746e-08
-1.06586e-07
-1.26155e-08
-2.87384e-08
1.40736e-08
4.22789e-09
-1.39568e-08
-5.4622e-08
-6.44298e-08
-1.09813e-07
-4.83785e-08
-5.27025e-08
2.37667e-08
5.42983e-08
1.08962e-07
9.72765e-08
1.11993e-07
4.09339e-08
3.53217e-08
-1.28007e-08
-1.28152e-08
-4.52645e-08
-1.15127e-08
2.1045e-09
2.19363e-08
1.37077e-08
2.8567e-08
-1.7606e-08
-6.19183e-09
-3.67111e-08
-3.00343e-08
-2.53036e-08
2.06069e-09
1.09929e-08
4.15271e-08
3.82745e-08
7.97636e-08
8.83033e-08
1.68291e-07
2.66238e-07
5.9858e-07
9.22759e-07
2.52622e-06
2.49549e-06
1.46555e-05
4.97786e-06
0.000200515
0.000582664
0.0103099
0.00103328
-0.000167881
0.000490891
-9.34066e-05
0.000286706
-5.41397e-06
0.000145851
1.84844e-05
7.17779e-05
1.58141e-05
3.29279e-05
8.60132e-06
1.40457e-05
3.76804e-06
5.54599e-06
1.37967e-06
2.04421e-06
4.44491e-07
6.55462e-07
1.49421e-07
2.6901e-07
4.12773e-08
1.0726e-07
6.23537e-09
-3.90237e-08
4.43435e-09
-8.29709e-08
-3.84527e-08
-5.08992e-10
-1.01894e-08
-4.88866e-09
7.58022e-09
-5.64827e-08
2.95963e-10
-5.76271e-08
-5.36175e-09
5.32252e-08
8.56903e-08
8.38023e-08
1.26587e-07
6.50677e-08
8.23698e-08
4.71454e-08
7.06178e-08
4.19257e-08
1.1046e-07
4.01019e-08
5.30756e-08
-1.19266e-09
-4.21873e-08
-1.01772e-07
-7.80819e-08
-1.0587e-07
-1.54796e-08
-2.50047e-08
1.45186e-08
1.67805e-09
-1.29571e-08
-5.76905e-08
-6.73135e-08
-1.12259e-07
-5.0597e-08
-5.21243e-08
2.45095e-08
5.6649e-08
1.12591e-07
9.96048e-08
1.15509e-07
4.18919e-08
3.64737e-08
-1.289e-08
-1.22013e-08
-4.43938e-08
-1.18837e-08
3.12929e-09
2.33273e-08
1.34275e-08
2.94578e-08
-1.73647e-08
-6.66119e-09
-3.68221e-08
-3.11463e-08
-2.65214e-08
1.01097e-09
1.05978e-08
3.93338e-08
3.39387e-08
6.93169e-08
6.83922e-08
1.24354e-07
1.89753e-07
4.32397e-07
6.67115e-07
1.85085e-06
1.824e-06
1.07841e-05
3.67579e-06
0.000146491
0.000424894
0.00617751
0.000622514
-0.000101557
0.000296801
-5.60653e-05
0.000173796
-2.83236e-06
8.85275e-05
1.13623e-05
4.36233e-05
9.74445e-06
2.00226e-05
5.29984e-06
8.57427e-06
2.33703e-06
3.37268e-06
8.43335e-07
1.20678e-06
2.6173e-07
3.56052e-07
8.49082e-08
1.69755e-07
3.32252e-08
6.42687e-08
6.43414e-09
-4.97698e-08
6.13185e-09
-7.85403e-08
-4.29059e-08
-8.83773e-09
-5.01729e-09
-1.62142e-08
6.26825e-09
-5.12785e-08
-6.10123e-09
-4.92838e-08
-4.62744e-09
4.7765e-08
9.22928e-08
7.91284e-08
1.22998e-07
6.61998e-08
8.09651e-08
4.94019e-08
7.37368e-08
4.23172e-08
1.10845e-07
4.30042e-08
5.21443e-08
-4.94019e-09
-4.00232e-08
-1.05428e-07
-7.85835e-08
-1.03803e-07
-1.83691e-08
-2.14834e-08
1.55382e-08
-1.23513e-09
-1.17703e-08
-5.99086e-08
-6.95801e-08
-1.13768e-07
-5.24344e-08
-5.10142e-08
2.50164e-08
5.83793e-08
1.15393e-07
1.00888e-07
1.17967e-07
4.22838e-08
3.72673e-08
-1.28865e-08
-1.15716e-08
-4.30014e-08
-1.21467e-08
4.15593e-09
2.46351e-08
1.29975e-08
3.02526e-08
-1.70339e-08
-6.93287e-09
-3.66485e-08
-3.18387e-08
-2.74293e-08
-5.35237e-11
1.02883e-08
3.68526e-08
2.90472e-08
5.7861e-08
4.70208e-08
7.76367e-08
1.08788e-07
2.56265e-07
3.97228e-07
1.1299e-06
1.11172e-06
6.59544e-06
2.24959e-06
8.91999e-05
0.000258423
0.00205746
0.000207848
-3.39861e-05
9.95399e-05
-1.84501e-05
5.83652e-05
-5.56251e-07
2.97354e-05
3.81891e-06
1.46716e-05
3.37256e-06
6.72242e-06
1.83285e-06
2.92377e-06
8.28732e-07
1.12373e-06
2.77035e-07
3.40019e-07
6.66902e-08
4.72144e-08
1.62444e-08
6.60106e-08
2.45653e-08
2.01448e-08
5.83318e-09
-6.04321e-08
6.93923e-09
-7.35448e-08
-4.67509e-08
-1.89446e-08
7.18287e-10
-2.67451e-08
3.99797e-09
-4.39803e-08
-1.25953e-08
-4.14163e-08
-2.35653e-09
4.14355e-08
9.80114e-08
7.4142e-08
1.18199e-07
6.70774e-08
7.89711e-08
5.09543e-08
7.63418e-08
4.25921e-08
1.10043e-07
4.53439e-08
5.13891e-08
-9.02136e-09
-3.7555e-08
-1.07874e-07
-7.90144e-08
-1.00606e-07
-2.10795e-08
-1.83608e-08
1.70856e-08
-4.29131e-09
-1.05207e-08
-6.11982e-08
-7.11379e-08
-1.14345e-07
-5.384e-08
-4.94394e-08
2.5343e-08
5.94223e-08
1.17321e-07
1.01176e-07
1.19293e-07
4.21381e-08
3.76803e-08
-1.2763e-08
-1.09477e-08
-4.11326e-08
-1.22703e-08
5.179e-09
2.58808e-08
1.24258e-08
3.09481e-08
-1.65725e-08
-6.98521e-09
-3.61782e-08
-3.20976e-08
-2.7997e-08
-1.08899e-09
1.00161e-08
3.41935e-08
2.37375e-08
4.56516e-08
2.47507e-08
2.91915e-08
2.52066e-08
7.4128e-08
1.18844e-07
3.81144e-07
3.74661e-07
2.21297e-06
7.4733e-07
2.99351e-05
8.671e-05
-0.00205849
-0.000208108
3.40046e-05
-9.87753e-05
1.9252e-05
-5.79063e-05
1.61482e-06
-2.9546e-05
-3.86587e-06
-1.4546e-05
-3.10141e-06
-6.70884e-06
-1.69037e-06
-2.78664e-06
-7.06421e-07
-1.15152e-06
-2.98665e-07
-5.3591e-07
-1.33124e-07
-2.63545e-07
-5.3498e-08
-3.98151e-08
1.58236e-08
-2.41856e-08
4.91117e-09
-7.07968e-08
6.76682e-09
-6.82081e-08
-4.98018e-08
-3.05473e-08
6.66904e-09
-3.59593e-08
7.35415e-10
-3.50591e-08
-1.86295e-08
-3.44028e-08
1.25454e-09
3.44597e-08
1.02579e-07
6.91397e-08
1.12213e-07
6.76327e-08
7.65466e-08
5.17086e-08
7.84376e-08
4.27037e-08
1.08129e-07
4.71225e-08
5.06965e-08
-1.31907e-08
-3.49611e-08
-1.091e-07
-7.92876e-08
-9.65451e-08
-2.34616e-08
-1.57817e-08
1.90267e-08
-7.26359e-09
-9.33001e-09
-6.1561e-08
-7.19243e-08
-1.14019e-07
-5.47755e-08
-4.75044e-08
2.5525e-08
5.97377e-08
1.18308e-07
1.00511e-07
1.19419e-07
4.14829e-08
3.76794e-08
-1.25141e-08
-1.03587e-08
-3.88596e-08
-1.22379e-08
6.15007e-09
2.70569e-08
1.17108e-08
3.15117e-08
-1.59705e-08
-6.83318e-09
-3.54222e-08
-3.19423e-08
-2.82302e-08
-2.05878e-09
9.71071e-09
3.14285e-08
1.81378e-08
3.29267e-08
2.13788e-09
-1.99147e-08
-5.91175e-08
-1.09981e-07
-1.62213e-07
-3.77016e-07
-3.70741e-07
-2.23458e-06
-7.80534e-07
-2.99896e-05
-8.67528e-05
-0.00617853
-0.000622779
0.000101577
-0.000296047
5.68578e-05
-0.00017334
3.88531e-06
-8.83356e-05
-1.14089e-05
-4.34961e-05
-9.47509e-06
-2.00058e-05
-5.15914e-06
-8.4369e-06
-2.21703e-06
-3.40311e-06
-8.6309e-07
-1.40062e-06
-3.30003e-07
-5.68753e-07
-1.2121e-07
-1.45261e-07
7.56497e-09
-6.78882e-08
4.1242e-09
-8.05702e-08
5.53697e-09
-6.27684e-08
-5.18718e-08
-4.32291e-08
1.24803e-08
-4.34258e-08
-3.4094e-09
-2.50726e-08
-2.36712e-08
-2.84861e-08
5.93155e-09
2.71268e-08
1.05774e-07
6.44215e-08
1.05124e-07
6.77579e-08
7.38652e-08
5.15907e-08
8.00142e-08
4.25997e-08
1.05171e-07
4.83696e-08
4.99144e-08
-1.72252e-08
-3.23739e-08
-1.09157e-07
-7.92943e-08
-9.18855e-08
-2.54023e-08
-1.38292e-08
2.1179e-08
-9.93386e-09
-8.28875e-09
-6.10514e-08
-7.18898e-08
-1.1281e-07
-5.51987e-08
-4.53209e-08
2.55946e-08
5.93299e-08
1.18295e-07
9.89469e-08
1.18311e-07
4.03724e-08
3.7255e-08
-1.2137e-08
-9.82131e-09
-3.62593e-08
-1.20259e-08
7.00994e-09
2.81457e-08
1.08677e-08
3.18916e-08
-1.52309e-08
-6.50806e-09
-3.43952e-08
-3.14009e-08
-2.81494e-08
-2.9215e-09
9.3107e-09
2.86198e-08
1.23971e-08
1.99326e-08
-2.02608e-08
-6.8592e-08
-1.42309e-07
-2.91989e-07
-4.40091e-07
-1.12597e-06
-1.10789e-06
-6.61681e-06
-2.28275e-06
-8.92539e-05
-0.000258465
-0.0103109
-0.00103355
0.000167905
-0.000490157
9.41806e-05
-0.000286257
6.45556e-06
-0.000145655
-1.85302e-05
-7.16477e-05
-1.55484e-05
-3.29049e-05
-8.46408e-06
-1.39079e-05
-3.65219e-06
-5.58128e-06
-1.39607e-06
-2.23394e-06
-5.16239e-07
-8.61144e-07
-1.83883e-07
-2.47882e-07
3.81076e-10
-1.10191e-07
3.82605e-09
-8.94014e-08
3.21453e-09
-5.74814e-08
-5.27921e-08
-5.64644e-08
1.78098e-08
-4.88426e-08
-8.1887e-09
-1.46024e-08
-2.72656e-08
-2.37598e-08
1.13388e-08
1.97785e-08
1.07427e-07
6.02435e-08
9.7099e-08
6.733e-08
7.10922e-08
5.05654e-08
8.10335e-08
4.22238e-08
1.01228e-07
4.91389e-08
4.88939e-08
-2.09503e-08
-2.9874e-08
-1.08144e-07
-7.89221e-08
-8.68641e-08
-2.68415e-08
-1.25231e-08
2.33384e-08
-1.21199e-08
-7.45028e-09
-5.97669e-08
-7.10013e-08
-1.10738e-07
-5.50678e-08
-4.29969e-08
2.5569e-08
5.82364e-08
1.17237e-07
9.65447e-08
1.15969e-07
3.8873e-08
3.6411e-08
-1.1631e-08
-9.33133e-09
-3.3413e-08
-1.16073e-08
7.69633e-09
2.9116e-08
9.92429e-09
3.20261e-08
-1.43731e-08
-6.05593e-09
-3.31197e-08
-3.05079e-08
-2.77853e-08
-3.63475e-09
8.77043e-09
2.58164e-08
6.67966e-09
6.93303e-09
-4.18999e-08
-1.15744e-07
-2.22515e-07
-4.67844e-07
-7.08984e-07
-1.84731e-06
-1.82033e-06
-1.08051e-05
-3.70886e-06
-0.000146544
-0.000424936
-0.014464
-0.00143769
0.000232198
-0.000678928
0.000131022
-0.000394971
9.5137e-06
-0.000200532
-2.49601e-05
-9.84767e-05
-2.11281e-05
-4.51475e-05
-1.14998e-05
-1.90834e-05
-4.963e-06
-7.63727e-06
-1.87847e-06
-3.01633e-06
-6.84358e-07
-1.13382e-06
-2.38706e-07
-3.45304e-07
-5.10963e-09
-1.50319e-07
4.24315e-09
-9.68985e-08
-1.25635e-10
-5.25762e-08
-5.24295e-08
-6.96471e-08
2.23844e-08
-5.20366e-08
-1.32388e-08
-4.20005e-09
-2.90701e-08
-2.01676e-08
1.71186e-08
1.2799e-08
1.0746e-07
5.67836e-08
8.8389e-08
6.6232e-08
6.83703e-08
4.86567e-08
8.14576e-08
4.1547e-08
9.63649e-08
4.94802e-08
4.75242e-08
-2.42304e-08
-2.74695e-08
-1.06161e-07
-7.80558e-08
-8.16554e-08
-2.77439e-08
-1.18144e-08
2.53231e-08
-1.36675e-08
-6.80815e-09
-5.78115e-08
-6.92269e-08
-1.07801e-07
-5.43306e-08
-4.0604e-08
2.54743e-08
5.65418e-08
1.15126e-07
9.33945e-08
1.12455e-07
3.70847e-08
3.51952e-08
-1.09889e-08
-8.85191e-09
-3.03824e-08
-1.09373e-08
8.1748e-09
2.99196e-08
8.93852e-09
3.18551e-08
-1.34122e-08
-5.51252e-09
-3.16066e-08
-2.92806e-08
-2.71537e-08
-4.14673e-09
8.09653e-09
2.30736e-08
1.1731e-09
-5.7944e-09
-6.22403e-08
-1.60265e-07
-2.97915e-07
-6.33568e-07
-9.6318e-07
-2.52322e-06
-2.49204e-06
-1.46758e-05