/*--------------------------------*- C++ -*----------------------------------*\
| =========                 |                                                 |
| \\      /  F ield         | OpenFOAM: The Open Source CFD Toolbox           |
|  \\    /   O peration     | Version:  v1906                                 |
|   \\  /    A nd           | Web:      www.OpenFOAM.com                      |
|    \\/     M anipulation  |                                                 |
\*---------------------------------------------------------------------------*/
FoamFile
{
    version     2.0;
    format      ascii;
    class       volScalarField;
    location    "1";
    object      Uy;
}
// * * * * * * * * * * * * * * * * * * * * * * * * * * * * * * * * * * * * * //

dimensions      [0 1 -1 0 0 0 0];


internalField   nonuniform List<scalar> 
4000
(
0.0732057
0.00685194
-0.0005241
-0.00107068
-0.00130908
-0.00120934
-0.00120071
-0.00117606
-0.00117881
-0.00117941
-0.00118372
-0.00118664
-0.00118978
-0.00119229
-0.00119444
-0.00119617
-0.00119769
-0.00119899
-0.00120007
-0.00120097
-0.00120174
-0.00120236
-0.00120288
-0.00120328
-0.00120361
-0.00120388
-0.00120409
-0.00120425
-0.00120438
-0.00120446
-0.00120454
-0.00120459
-0.00120463
-0.00120466
-0.00120469
-0.00120469
-0.00120469
-0.00120471
-0.00120473
-0.00120472
-0.00120471
-0.00120472
-0.00120474
-0.00120472
-0.00120472
-0.00120473
-0.00120474
-0.00120473
-0.00120473
-0.00120473
-0.00120474
-0.00120473
-0.00120473
-0.00120473
-0.00120472
-0.00120472
-0.00120473
-0.00120473
-0.00120473
-0.00120472
-0.00120473
-0.00120473
-0.00120473
-0.00120473
-0.00120474
-0.00120473
-0.00120474
-0.00120474
-0.00120474
-0.00120473
-0.00120473
-0.00120473
-0.00120473
-0.00120473
-0.00120473
-0.00120472
-0.00120473
-0.00120473
-0.00120473
-0.00120472
-0.00120472
-0.00120472
-0.00120471
-0.0012047
-0.00120469
-0.00120466
-0.00120464
-0.0012046
-0.00120454
-0.00120445
-0.00120435
-0.00120425
-0.00120419
-0.00120432
-0.00120471
-0.00120465
-0.00120165
-0.00118544
-0.0011668
-0.00130295
0.171985
0.0240812
0.00284003
8.61967e-05
-0.000766504
-0.000454053
-0.000390848
-0.000298637
-0.000300269
-0.000301805
-0.000316999
-0.000328767
-0.000341083
-0.000351008
-0.000359722
-0.00036696
-0.000373302
-0.000378777
-0.000383405
-0.000387254
-0.000390535
-0.000393269
-0.000395532
-0.000397316
-0.000398779
-0.000399983
-0.000400931
-0.000401626
-0.000402199
-0.000402615
-0.000402943
-0.000403167
-0.000403353
-0.000403475
-0.000403574
-0.00040362
-0.000403671
-0.000403714
-0.000403744
-0.000403745
-0.000403766
-0.000403781
-0.000403813
-0.000403787
-0.000403786
-0.000403804
-0.000403826
-0.000403803
-0.000403815
-0.000403799
-0.000403817
-0.000403803
-0.000403806
-0.000403794
-0.000403784
-0.000403774
-0.000403788
-0.000403787
-0.000403806
-0.000403786
-0.000403808
-0.000403818
-0.000403823
-0.00040381
-0.000403827
-0.000403814
-0.000403813
-0.000403816
-0.000403824
-0.000403814
-0.00040381
-0.000403795
-0.000403805
-0.000403793
-0.000403793
-0.000403775
-0.000403792
-0.000403792
-0.000403803
-0.000403787
-0.000403771
-0.000403752
-0.000403733
-0.000403695
-0.000403657
-0.000403559
-0.000403442
-0.000403278
-0.000403049
-0.000402716
-0.000402298
-0.000401881
-0.000401559
-0.000401737
-0.000402258
-0.000400169
-0.000382622
-0.000315959
-0.000212922
-0.000457807
0.19532
0.0389484
0.00768414
0.00117512
-0.000432349
1.64084e-05
0.000180573
0.00035739
0.00036725
0.000363431
0.000333609
0.000308171
0.000282579
0.000262278
0.000244434
0.000229373
0.000216376
0.000205198
0.000195697
0.000187694
0.000180885
0.000175267
0.000170574
0.000166765
0.00016366
0.000161144
0.000159171
0.000157686
0.000156446
0.000155541
0.000154857
0.000154352
0.000153978
0.000153715
0.0001535
0.000153379
0.000153255
0.000153188
0.000153141
0.00015311
0.00015306
0.00015305
0.000153001
0.00015301
0.000153003
0.000152992
0.000152961
0.000152984
0.000152952
0.000152968
0.000152954
0.000152991
0.000152999
0.000153002
0.000153017
0.000153051
0.000153031
0.000153033
0.000153005
0.000153021
0.000152977
0.000152967
0.000152951
0.000152971
0.000152948
0.000152965
0.000152966
0.000152968
0.000152954
0.000152967
0.000152968
0.000152997
0.000152999
0.00015302
0.000153009
0.000153029
0.000153009
0.000153016
0.000153001
0.000153021
0.000153048
0.000153098
0.000153147
0.000153223
0.000153308
0.000153492
0.000153743
0.000154094
0.000154571
0.00015524
0.000156107
0.000157011
0.000157821
0.000157842
0.000158232
0.00016506
0.000210334
0.000360093
0.000653335
0.000607043
0.187063
0.0487138
0.0120625
0.0017283
-0.000549639
-5.89744e-05
0.000218797
0.000475101
0.00050264
0.000496717
0.000453803
0.000415336
0.000377481
0.000346447
0.000318989
0.000295381
0.000275647
0.00025879
0.000244408
0.000232202
0.000221757
0.000213172
0.00020603
0.00020014
0.000195376
0.000191558
0.000188509
0.000186177
0.00018425
0.000182831
0.000181783
0.000180983
0.0001804
0.000179987
0.000179639
0.000179445
0.000179264
0.00017915
0.000179072
0.000179014
0.000178939
0.000178926
0.000178873
0.000178866
0.000178855
0.000178837
0.00017878
0.000178806
0.000178779
0.000178797
0.000178769
0.000178811
0.000178839
0.000178845
0.000178867
0.000178924
0.000178905
0.0001789
0.000178862
0.000178876
0.000178814
0.000178797
0.000178772
0.000178805
0.000178787
0.000178803
0.000178797
0.000178798
0.000178785
0.000178804
0.000178802
0.000178834
0.000178848
0.000178884
0.000178871
0.000178886
0.000178857
0.000178867
0.00017886
0.000178895
0.000178928
0.000178995
0.000179075
0.000179199
0.000179346
0.00017962
0.000180007
0.000180551
0.000181292
0.000182314
0.00018366
0.000185109
0.000186566
0.000187144
0.000189568
0.000203109
0.000283727
0.000530361
0.00109588
0.00141753
0.17089
0.0545006
0.0154955
0.00207304
-0.000734098
-0.000252237
0.000132053
0.000448837
0.00049408
0.000486798
0.00043524
0.000387389
0.000340714
0.000301016
0.000265906
0.000235646
0.000210053
0.000187988
0.000169013
0.000152785
0.000138701
0.000127159
0.000117771
0.000110001
0.000103705
9.86594e-05
9.46018e-05
9.14805e-05
8.89463e-05
8.70557e-05
8.56541e-05
8.45773e-05
8.37889e-05
8.32405e-05
8.27706e-05
8.25118e-05
8.22783e-05
8.21106e-05
8.19897e-05
8.19263e-05
8.1839e-05
8.1813e-05
8.17443e-05
8.17233e-05
8.17044e-05
8.1685e-05
8.1602e-05
8.16254e-05
8.16008e-05
8.16285e-05
8.15916e-05
8.16358e-05
8.16793e-05
8.1697e-05
8.17254e-05
8.18036e-05
8.17856e-05
8.17762e-05
8.17211e-05
8.17304e-05
8.1652e-05
8.16308e-05
8.15922e-05
8.16329e-05
8.16186e-05
8.16375e-05
8.16266e-05
8.16259e-05
8.16078e-05
8.16328e-05
8.16328e-05
8.16758e-05
8.16946e-05
8.17397e-05
8.17257e-05
8.17439e-05
8.17083e-05
8.17206e-05
8.17171e-05
8.17654e-05
8.18086e-05
8.18924e-05
8.19972e-05
8.21653e-05
8.23695e-05
8.27264e-05
8.32306e-05
8.39467e-05
8.4924e-05
8.62652e-05
8.80521e-05
9.0029e-05
9.22181e-05
9.36828e-05
9.90637e-05
0.000120574
0.000239915
0.000575332
0.00144305
0.00215113
0.153411
0.0575274
0.018036
0.00237916
-0.000829614
-0.000389687
8.889e-05
0.000448652
0.000510154
0.000502113
0.000444235
0.000388942
0.000335388
0.000289597
0.00024933
0.00021483
0.000184841
0.000158726
0.000136191
0.000116924
0.000100181
8.62824e-05
7.48841e-05
6.54065e-05
5.76278e-05
5.12922e-05
4.63352e-05
4.25098e-05
3.9444e-05
3.7137e-05
3.54122e-05
3.40958e-05
3.31242e-05
3.24617e-05
3.18968e-05
3.15675e-05
3.12805e-05
3.10703e-05
3.09215e-05
3.08476e-05
3.07471e-05
3.07047e-05
3.06279e-05
3.0592e-05
3.05596e-05
3.05436e-05
3.04416e-05
3.04504e-05
3.04242e-05
3.04664e-05
3.04314e-05
3.04719e-05
3.05256e-05
3.05561e-05
3.05933e-05
3.06862e-05
3.06709e-05
3.06608e-05
3.05911e-05
3.05926e-05
3.05018e-05
3.04764e-05
3.0427e-05
3.04712e-05
3.04634e-05
3.04847e-05
3.04719e-05
3.04701e-05
3.04467e-05
3.04729e-05
3.04768e-05
3.05291e-05
3.05507e-05
3.06013e-05
3.05887e-05
3.06098e-05
3.05721e-05
3.05857e-05
3.05828e-05
3.06413e-05
3.06983e-05
3.07971e-05
3.09212e-05
3.11251e-05
3.13785e-05
3.18044e-05
3.24071e-05
3.32667e-05
3.44438e-05
3.60486e-05
3.82159e-05
4.06987e-05
4.3685e-05
4.6297e-05
5.53944e-05
8.55484e-05
0.000240588
0.000654206
0.00181877
0.00286307
0.1363
0.0584874
0.0197596
0.00263912
-0.000858688
-0.000478241
7.59193e-05
0.000467144
0.000543171
0.000534923
0.000472566
0.000411492
0.000352534
0.00030197
0.000257502
0.000219399
0.000186245
0.000157376
0.000132498
0.000111317
9.30434e-05
7.76456e-05
6.47457e-05
5.40045e-05
4.51479e-05
3.79e-05
3.21626e-05
2.76728e-05
2.4054e-05
2.13658e-05
1.93562e-05
1.78363e-05
1.67167e-05
1.59546e-05
1.53109e-05
1.49169e-05
1.45868e-05
1.4346e-05
1.41784e-05
1.40897e-05
1.39773e-05
1.39224e-05
1.38454e-05
1.37947e-05
1.37405e-05
1.37252e-05
1.36147e-05
1.36042e-05
1.35707e-05
1.36252e-05
1.36005e-05
1.36367e-05
1.3698e-05
1.3739e-05
1.37867e-05
1.38923e-05
1.38818e-05
1.38714e-05
1.37935e-05
1.3784e-05
1.3682e-05
1.36558e-05
1.36018e-05
1.36439e-05
1.36417e-05
1.36639e-05
1.36505e-05
1.36472e-05
1.36196e-05
1.36447e-05
1.36512e-05
1.37087e-05
1.37354e-05
1.37913e-05
1.37809e-05
1.38027e-05
1.37645e-05
1.37785e-05
1.37775e-05
1.3842e-05
1.39124e-05
1.40249e-05
1.41646e-05
1.43964e-05
1.469e-05
1.51692e-05
1.58487e-05
1.68184e-05
1.81543e-05
1.99826e-05
2.24784e-05
2.54917e-05
2.93807e-05
3.33299e-05
4.61979e-05
8.41476e-05
0.000269167
0.000751788
0.00217983
0.00349298
0.120289
0.0578534
0.0207395
0.00282667
-0.000856315
-0.000540688
6.82144e-05
0.000481503
0.000569734
0.000561815
0.000497032
0.000432237
0.000369764
0.000315946
0.000268492
0.000227731
0.000192348
0.000161524
0.000134927
0.000112248
9.27003e-05
7.61967e-05
6.23528e-05
5.08574e-05
4.14244e-05
3.37671e-05
2.75044e-05
2.25672e-05
1.85781e-05
1.55683e-05
1.32877e-05
1.15662e-05
1.03259e-05
9.47866e-06
8.77042e-06
8.32228e-06
7.95883e-06
7.70094e-06
7.5204e-06
7.41532e-06
7.29397e-06
7.23234e-06
7.15926e-06
7.09529e-06
7.01416e-06
6.99624e-06
6.88491e-06
6.85711e-06
6.81298e-06
6.87514e-06
6.86238e-06
6.89579e-06
6.96196e-06
7.01203e-06
7.06889e-06
7.18736e-06
7.18271e-06
7.17183e-06
7.08909e-06
7.06991e-06
6.95595e-06
6.93253e-06
6.88095e-06
6.91854e-06
6.91827e-06
6.94096e-06
6.92742e-06
6.92271e-06
6.89051e-06
6.91333e-06
6.92076e-06
6.97994e-06
7.01308e-06
7.07581e-06
7.06688e-06
7.08817e-06
7.05046e-06
7.06464e-06
7.06633e-06
7.13475e-06
7.21427e-06
7.33749e-06
7.48901e-06
7.74132e-06
8.0649e-06
8.58134e-06
9.31657e-06
1.03721e-05
1.1832e-05
1.38903e-05
1.66955e-05
2.01311e-05
2.47911e-05
3.00226e-05
4.62063e-05
9.05344e-05
0.00030148
0.000838737
0.00247848
0.00399125
0.105668
0.0559963
0.0210632
0.00293501
-0.000836702
-0.000584345
6.01051e-05
0.000485076
0.000582675
0.000575532
0.000510287
0.000443851
0.00037981
0.000324402
0.00027541
0.000233219
0.000196613
0.000164678
0.00013706
0.00011343
9.30237e-05
7.57996e-05
6.13518e-05
4.93349e-05
3.94756e-05
3.14998e-05
2.49814e-05
1.98578e-05
1.57463e-05
1.25571e-05
1.01191e-05
8.28096e-06
6.93366e-06
6.0017e-06
5.23284e-06
4.74391e-06
4.35136e-06
4.08727e-06
3.89973e-06
3.78155e-06
3.65445e-06
3.59009e-06
3.52017e-06
3.44537e-06
3.3356e-06
3.31375e-06
3.20557e-06
3.16547e-06
3.10895e-06
3.17569e-06
3.17314e-06
3.20579e-06
3.27339e-06
3.33436e-06
3.39702e-06
3.52806e-06
3.52932e-06
3.51859e-06
3.43007e-06
3.40522e-06
3.27979e-06
3.26062e-06
3.21453e-06
3.24805e-06
3.24523e-06
3.26951e-06
3.25614e-06
3.25037e-06
3.21129e-06
3.23205e-06
3.24029e-06
3.30016e-06
3.33782e-06
3.40821e-06
3.40005e-06
3.42153e-06
3.38539e-06
3.40053e-06
3.40314e-06
3.47439e-06
3.55873e-06
3.68834e-06
3.84676e-06
4.1126e-06
4.45682e-06
4.99851e-06
5.77384e-06
6.91651e-06
8.47926e-06
1.06634e-05
1.36556e-05
1.73234e-05
2.25205e-05
2.88533e-05
4.80318e-05
9.77696e-05
0.000328774
0.000903517
0.00269449
0.00433977
0.0924253
0.0531989
0.0208207
0.00296652
-0.000804493
-0.000610302
5.13619e-05
0.000477745
0.000581612
0.000575561
0.000511547
0.00044534
0.000381502
0.000326055
0.000276896
0.00023447
0.000197647
0.000165467
0.000137585
0.000113659
9.29469e-05
7.54503e-05
6.07529e-05
4.84873e-05
3.84003e-05
3.02482e-05
2.36126e-05
1.83843e-05
1.41961e-05
1.09471e-05
8.48457e-06
6.6432e-06
5.24507e-06
4.27496e-06
3.47497e-06
2.9554e-06
2.5333e-06
2.26553e-06
2.07697e-06
1.94967e-06
1.82e-06
1.75333e-06
1.68396e-06
1.60233e-06
1.46552e-06
1.43695e-06
1.33366e-06
1.28678e-06
1.21856e-06
1.28684e-06
1.29179e-06
1.32468e-06
1.39231e-06
1.46665e-06
1.5328e-06
1.67355e-06
1.6811e-06
1.67193e-06
1.57697e-06
1.55001e-06
1.41596e-06
1.39967e-06
1.35956e-06
1.39067e-06
1.3827e-06
1.4079e-06
1.395e-06
1.38871e-06
1.34161e-06
1.35916e-06
1.36883e-06
1.43001e-06
1.46949e-06
1.54629e-06
1.53955e-06
1.56259e-06
1.52875e-06
1.54573e-06
1.54752e-06
1.61969e-06
1.70598e-06
1.83719e-06
1.99797e-06
2.27189e-06
2.63242e-06
3.19741e-06
3.99523e-06
5.16827e-06
6.76832e-06
8.94136e-06
1.19763e-05
1.58029e-05
2.1462e-05
2.87623e-05
5.04579e-05
0.000104189
0.000348067
0.000942726
0.00282195
0.00453658
0.0804212
0.0496721
0.020094
0.00292535
-0.000761887
-0.000618891
4.21152e-05
0.000460312
0.000567227
0.00056244
0.000501078
0.000436731
0.000374665
0.000320562
0.000272463
0.000230874
0.000194765
0.000163151
0.000135719
0.000112126
9.16563e-05
7.43367e-05
5.97616e-05
4.75686e-05
3.75175e-05
2.93901e-05
2.2781e-05
1.75475e-05
1.33491e-05
1.01019e-05
7.64501e-06
5.82449e-06
4.44045e-06
3.48903e-06
2.69972e-06
2.1761e-06
1.74547e-06
1.48407e-06
1.30145e-06
1.16562e-06
1.03438e-06
9.62817e-07
8.91251e-07
8.06509e-07
6.47919e-07
6.07445e-07
5.08914e-07
4.59612e-07
3.82939e-07
4.4857e-07
4.6029e-07
4.93039e-07
5.60571e-07
6.49811e-07
7.20209e-07
8.6522e-07
8.796e-07
8.73183e-07
7.74307e-07
7.47003e-07
6.09163e-07
5.92621e-07
5.57726e-07
5.87155e-07
5.7413e-07
5.97514e-07
5.85267e-07
5.78344e-07
5.24392e-07
5.36207e-07
5.47762e-07
6.11016e-07
6.51093e-07
7.31367e-07
7.277e-07
7.53437e-07
7.22514e-07
7.41231e-07
7.421e-07
8.12145e-07
8.99011e-07
1.02802e-06
1.19009e-06
1.4695e-06
1.83433e-06
2.39641e-06
3.18177e-06
4.3159e-06
5.88414e-06
8.02595e-06
1.1061e-05
1.4984e-05
2.0981e-05
2.90279e-05
5.2514e-05
0.000108487
0.000357662
0.000955068
0.00286052
0.00458636
0.0694838
0.0455756
0.018955
0.00281605
-0.000710132
-0.000610458
3.27048e-05
0.000433768
0.000540469
0.000536983
0.000479455
0.000418384
0.000359469
0.00030794
0.000261993
0.000222193
0.000187641
0.000157333
0.000131003
0.000108313
8.85897e-05
7.18681e-05
5.77721e-05
4.59667e-05
3.62189e-05
2.83219e-05
2.18983e-05
1.67917e-05
1.26875e-05
9.51531e-06
7.10805e-06
5.33121e-06
3.98766e-06
3.06494e-06
2.30036e-06
1.80017e-06
1.38848e-06
1.14738e-06
9.8198e-07
8.47319e-07
7.20097e-07
6.40605e-07
5.63546e-07
4.77427e-07
3.04222e-07
2.47011e-07
1.51688e-07
1.04783e-07
2.35546e-08
8.26635e-08
1.00504e-07
1.33295e-07
2.00591e-07
3.03622e-07
3.80836e-07
5.24811e-07
5.4804e-07
5.43545e-07
4.44345e-07
4.17833e-07
2.80118e-07
2.60301e-07
2.29595e-07
2.5735e-07
2.40357e-07
2.58994e-07
2.47054e-07
2.39039e-07
1.80619e-07
1.84263e-07
1.97328e-07
2.6291e-07
3.04016e-07
3.8494e-07
3.85862e-07
4.15663e-07
3.88302e-07
4.07298e-07
4.08031e-07
4.72802e-07
5.60465e-07
6.85396e-07
8.41994e-07
1.11451e-06
1.46419e-06
1.99247e-06
2.73864e-06
3.82806e-06
5.34379e-06
7.42705e-06
1.04052e-05
1.43256e-05
2.04743e-05
2.89655e-05
5.33693e-05
0.000109733
0.000356653
0.000940364
0.00281308
0.00449754
0.0594473
0.0410324
0.0174667
0.00264374
-0.000649908
-0.000585416
2.3716e-05
0.000399311
0.00050257
0.000500306
0.000447585
0.000391008
0.000336443
0.00028857
0.00024574
0.000208576
0.00017633
0.000147999
0.000123361
0.000102091
8.35683e-05
6.78367e-05
5.45515e-05
4.34222e-05
3.42234e-05
2.67506e-05
2.06661e-05
1.58194e-05
1.19158e-05
8.90178e-06
6.60758e-06
4.91354e-06
3.6384e-06
2.76182e-06
2.03378e-06
1.56643e-06
1.18216e-06
9.63003e-07
8.24201e-07
7.03112e-07
5.85575e-07
5.00319e-07
4.17369e-07
3.33268e-07
1.52251e-07
7.75206e-08
-1.7049e-08
-5.93726e-08
-1.4057e-07
-9.03543e-08
-6.5626e-08
-3.09303e-08
3.31962e-08
1.47281e-07
2.33152e-07
3.74396e-07
4.02871e-07
4.01853e-07
3.06656e-07
2.81566e-07
1.45639e-07
1.20794e-07
9.301e-08
1.19379e-07
9.99144e-08
1.11142e-07
9.92113e-08
8.94418e-08
2.85865e-08
2.3121e-08
3.62737e-08
1.04783e-07
1.46807e-07
2.27596e-07
2.33739e-07
2.69163e-07
2.46168e-07
2.63063e-07
2.64562e-07
3.21942e-07
4.06019e-07
5.22204e-07
6.63197e-07
9.14896e-07
1.24022e-06
1.73061e-06
2.42867e-06
3.46123e-06
4.89844e-06
6.87623e-06
9.72209e-06
1.35248e-05
1.96144e-05
2.82077e-05
5.25969e-05
0.000107506
0.000344871
0.000899445
0.00268494
0.00428103
0.0501606
0.0361393
0.015685
0.00241409
-0.000581714
-0.000544444
1.57522e-05
0.000358196
0.000454905
0.000453699
0.000406567
0.000355523
0.000306338
0.000263055
0.000224186
0.000190401
0.000161127
0.000135366
0.000112951
9.35617e-05
7.66468e-05
6.22626e-05
5.00919e-05
3.98979e-05
3.14684e-05
2.46007e-05
1.89982e-05
1.4532e-05
1.09249e-05
8.14646e-06
6.02827e-06
4.46213e-06
3.28572e-06
2.48159e-06
1.80647e-06
1.38423e-06
1.03609e-06
8.39677e-07
7.29414e-07
6.25901e-07
5.17445e-07
4.29325e-07
3.4059e-07
2.63218e-07
8.17964e-08
-7.31812e-09
-1.07017e-07
-1.44748e-07
-2.21588e-07
-1.80056e-07
-1.48984e-07
-1.09597e-07
-4.80887e-08
7.39887e-08
1.67747e-07
3.04429e-07
3.32512e-07
3.36633e-07
2.47956e-07
2.28106e-07
9.57282e-08
6.53379e-08
3.94464e-08
6.53501e-08
4.29762e-08
4.67239e-08
3.203e-08
2.20532e-08
-4.03678e-08
-5.33069e-08
-4.23788e-08
2.85384e-08
7.11337e-08
1.52844e-07
1.6435e-07
2.05265e-07
1.86149e-07
2.00382e-07
2.00655e-07
2.49509e-07
3.22945e-07
4.25434e-07
5.4754e-07
7.75326e-07
1.07229e-06
1.51902e-06
2.15599e-06
3.11062e-06
4.43765e-06
6.26239e-06
8.89985e-06
1.24697e-05
1.82847e-05
2.66258e-05
5.00602e-05
0.00010174
0.000322688
0.000833936
0.00248308
0.00394946
0.0414888
0.0309732
0.0136595
0.00213332
-0.000506127
-0.000488614
9.25979e-06
0.000311608
0.00039886
0.000398495
0.000357582
0.000312942
0.000270002
0.000232108
0.000197922
0.00016816
0.000142436
0.000119764
0.000100031
8.29349e-05
6.79857e-05
5.52651e-05
4.44801e-05
3.54511e-05
2.79846e-05
2.18857e-05
1.68954e-05
1.29164e-05
9.69155e-06
7.21769e-06
5.33039e-06
3.93463e-06
2.88451e-06
2.17914e-06
1.57508e-06
1.21193e-06
9.10357e-07
7.40781e-07
6.59161e-07
5.78354e-07
4.79913e-07
3.8908e-07
2.91743e-07
2.20617e-07
4.60716e-08
-5.2887e-08
-1.63156e-07
-1.95589e-07
-2.64953e-07
-2.29569e-07
-1.96487e-07
-1.50115e-07
-8.91005e-08
3.96839e-08
1.37177e-07
2.68534e-07
2.96141e-07
3.03953e-07
2.2012e-07
2.09414e-07
8.33919e-08
4.98581e-08
2.27962e-08
4.86239e-08
2.22687e-08
1.99717e-08
-8.32427e-10
-8.94695e-09
-7.09117e-08
-9.00121e-08
-8.3778e-08
-1.12955e-08
3.31238e-08
1.17034e-07
1.32446e-07
1.77584e-07
1.61407e-07
1.73482e-07
1.69537e-07
2.09202e-07
2.69333e-07
3.56892e-07
4.58175e-07
6.59081e-07
9.21581e-07
1.31573e-06
1.87706e-06
2.73275e-06
3.91991e-06
5.54932e-06
7.90849e-06
1.11358e-05
1.64652e-05
2.42054e-05
4.57795e-05
9.25776e-05
0.000290852
0.000746056
0.00221566
0.0035166
0.0333124
0.0255963
0.0114349
0.00180815
-0.000423892
-0.00041942
4.47129e-06
0.000260619
0.000335796
0.000336031
0.000301832
0.000264312
0.000228333
0.000196495
0.000167599
0.000142404
0.000120722
0.000101582
8.49223e-05
7.04723e-05
5.77987e-05
4.70132e-05
3.78494e-05
3.01823e-05
2.38452e-05
1.86561e-05
1.43933e-05
1.09946e-05
8.2281e-06
6.11882e-06
4.50834e-06
3.31976e-06
2.42109e-06
1.837e-06
1.32035e-06
1.02764e-06
7.83082e-07
6.46078e-07
5.92979e-07
5.39107e-07
4.54612e-07
3.63358e-07
2.55631e-07
1.86182e-07
2.21589e-08
-8.06125e-08
-2.01725e-07
-2.30369e-07
-2.89404e-07
-2.57116e-07
-2.2547e-07
-1.71419e-07
-1.11579e-07
2.25862e-08
1.19668e-07
2.47363e-07
2.75892e-07
2.86858e-07
2.0551e-07
2.03752e-07
8.66563e-08
5.28283e-08
2.16036e-08
4.62474e-08
1.66624e-08
8.50442e-09
-1.89136e-08
-2.58895e-08
-8.43292e-08
-1.08708e-07
-1.08985e-07
-3.51056e-08
1.16904e-08
9.89769e-08
1.16604e-07
1.65187e-07
1.52103e-07
1.62026e-07
1.52822e-07
1.823e-07
2.27826e-07
2.98994e-07
3.76916e-07
5.46692e-07
7.68842e-07
1.10183e-06
1.5745e-06
2.31283e-06
3.33482e-06
4.73208e-06
6.75056e-06
9.53421e-06
1.41807e-05
2.09932e-05
3.98741e-05
8.03092e-05
0.000250402
0.00063849
0.00189166
0.00299702
0.0255248
0.0200598
0.00905235
0.00144582
-0.000335935
-0.000338736
1.41029e-06
0.000206199
0.000267046
0.000267644
0.000240539
0.000210711
0.000182265
0.00015702
0.000133913
0.000113729
9.64922e-05
8.12487e-05
6.79828e-05
5.64714e-05
4.63327e-05
3.7708e-05
3.03629e-05
2.42194e-05
1.9148e-05
1.49845e-05
1.15471e-05
8.80747e-06
6.56549e-06
4.87026e-06
3.5737e-06
2.6219e-06
1.89762e-06
1.4526e-06
1.03779e-06
8.22762e-07
6.44946e-07
5.46796e-07
5.21907e-07
4.96513e-07
4.31089e-07
3.42798e-07
2.25082e-07
1.52355e-07
-1.07005e-09
-1.01045e-07
-2.30074e-07
-2.58226e-07
-3.0545e-07
-2.72939e-07
-2.44428e-07
-1.83947e-07
-1.23377e-07
1.3018e-08
1.07154e-07
2.30385e-07
2.62517e-07
2.76642e-07
1.96728e-07
2.02598e-07
9.76067e-08
6.46296e-08
2.84359e-08
4.94942e-08
1.75507e-08
3.69029e-09
-2.96396e-08
-3.74517e-08
-9.08212e-08
-1.17895e-07
-1.25098e-07
-5.1508e-08
-2.72309e-09
8.80489e-08
1.08253e-07
1.59213e-07
1.49469e-07
1.57556e-07
1.42501e-07
1.5975e-07
1.89502e-07
2.425e-07
2.95209e-07
4.29638e-07
6.06719e-07
8.71478e-07
1.24542e-06
1.85044e-06
2.68608e-06
3.81973e-06
5.44384e-06
7.69502e-06
1.14835e-05
1.7079e-05
3.25397e-05
6.53443e-05
0.000202606
0.000514307
0.00152066
0.00240584
0.0180294
0.0144068
0.00654971
0.00105405
-0.000243343
-0.000248758
-8.48798e-08
0.000149223
0.000193919
0.000194667
0.000174938
0.000153236
0.000132757
0.000114518
9.75888e-05
8.27606e-05
7.02812e-05
5.92202e-05
4.95989e-05
4.12545e-05
3.38557e-05
2.75704e-05
2.2202e-05
1.77077e-05
1.40056e-05
1.09582e-05
8.42455e-06
6.40793e-06
4.74427e-06
3.5014e-06
2.54726e-06
1.85468e-06
1.32426e-06
1.03104e-06
7.30354e-07
5.97252e-07
4.94135e-07
4.41261e-07
4.44189e-07
4.45905e-07
4.03902e-07
3.22513e-07
1.97094e-07
1.1658e-07
-2.7927e-08
-1.20081e-07
-2.51641e-07
-2.82618e-07
-3.18153e-07
-2.82875e-07
-2.56826e-07
-1.92309e-07
-1.28443e-07
7.5721e-09
9.65806e-08
2.12562e-07
2.50225e-07
2.68324e-07
1.90982e-07
2.02039e-07
1.12691e-07
8.19835e-08
4.0051e-08
5.40186e-08
2.0508e-08
1.29127e-09
-3.59616e-08
-4.68046e-08
-9.48604e-08
-1.22088e-07
-1.35066e-07
-6.41432e-08
-1.31812e-08
7.96511e-08
1.03264e-07
1.55169e-07
1.48889e-07
1.55361e-07
1.34502e-07
1.37069e-07
1.50005e-07
1.836e-07
2.10517e-07
3.05862e-07
4.34099e-07
6.25244e-07
8.93264e-07
1.3519e-06
1.98378e-06
2.82822e-06
4.01455e-06
5.66049e-06
8.44619e-06
1.25859e-05
2.40334e-05
4.81869e-05
0.000148914
0.000376885
0.00111271
0.00175862
0.0107374
0.00867449
0.00396284
0.000640953
-0.000147335
-0.000151939
-3.32934e-07
9.04883e-05
0.000117696
0.000118427
0.000106264
9.29919e-05
8.07875e-05
6.98434e-05
5.93702e-05
5.01459e-05
4.26438e-05
3.59691e-05
3.01725e-05
2.51589e-05
2.06487e-05
1.68319e-05
1.35551e-05
1.08006e-05
8.53894e-06
6.67284e-06
5.10124e-06
3.85505e-06
2.80877e-06
2.04532e-06
1.45376e-06
1.0366e-06
7.14651e-07
5.81255e-07
4.04405e-07
3.56112e-07
3.32571e-07
3.30982e-07
3.61462e-07
3.87257e-07
3.70467e-07
2.99335e-07
1.69789e-07
7.95237e-08
-5.85944e-08
-1.40507e-07
-2.68164e-07
-3.03249e-07
-3.28843e-07
-2.89165e-07
-2.63584e-07
-1.97339e-07
-1.28337e-07
5.21195e-09
8.72799e-08
1.92556e-07
2.35997e-07
2.59334e-07
1.87077e-07
2.01135e-07
1.2916e-07
1.02099e-07
5.4157e-08
5.77174e-08
2.28426e-08
-7.76806e-10
-3.9464e-08
-5.47853e-08
-9.83843e-08
-1.23806e-07
-1.40423e-07
-7.40781e-08
-2.10651e-08
7.22128e-08
9.97672e-08
1.51737e-07
1.48527e-07
1.53406e-07
1.26834e-07
1.12716e-07
1.07655e-07
1.21345e-07
1.22934e-07
1.76305e-07
2.52269e-07
3.66333e-07
5.23882e-07
8.26396e-07
1.24097e-06
1.77707e-06
2.49385e-06
3.48098e-06
5.15611e-06
7.66246e-06
1.46587e-05
2.94135e-05
9.09132e-05
0.000229839
0.000678155
0.00107117
0.00356552
0.00289614
0.00132601
0.000214946
-4.92292e-05
-5.093e-05
2.23327e-07
3.07284e-05
3.96319e-05
4.02377e-05
3.57535e-05
3.10873e-05
2.73385e-05
2.3858e-05
2.00087e-05
1.65406e-05
1.41452e-05
1.19781e-05
1.01147e-05
8.5303e-06
6.99956e-06
5.72922e-06
4.61266e-06
3.65421e-06
2.87357e-06
2.22877e-06
1.65594e-06
1.21035e-06
8.04063e-07
5.36039e-07
3.18964e-07
1.88151e-07
8.3654e-08
1.14149e-07
6.77739e-08
1.06794e-07
1.63834e-07
2.18186e-07
2.76415e-07
3.22913e-07
3.29909e-07
2.71155e-07
1.41442e-07
4.28046e-08
-9.14445e-08
-1.62924e-07
-2.81037e-07
-3.18677e-07
-3.3707e-07
-2.92355e-07
-2.64673e-07
-1.98094e-07
-1.23882e-07
5.81398e-09
7.91162e-08
1.71212e-07
2.18368e-07
2.4852e-07
1.84372e-07
2.00143e-07
1.44717e-07
1.22607e-07
6.87964e-08
5.98487e-08
2.29641e-08
-3.71247e-09
-4.14554e-08
-6.13228e-08
-1.02258e-07
-1.24493e-07
-1.42287e-07
-8.11977e-08
-2.71834e-08
6.52751e-08
9.70604e-08
1.48962e-07
1.47706e-07
1.50681e-07
1.1823e-07
8.65455e-08
6.22523e-08
5.61241e-08
3.34469e-08
4.3253e-08
6.3603e-08
9.90177e-08
1.44037e-07
2.84377e-07
4.72155e-07
6.87796e-07
9.16016e-07
1.21218e-06
1.71069e-06
2.47472e-06
4.75168e-06
9.65192e-06
3.02914e-05
7.69536e-05
0.000227551
0.000359515
-0.00356671
-0.0028973
-0.00132734
-0.000215378
4.95868e-05
5.14925e-05
1.05821e-06
-2.93696e-05
-3.90435e-05
-3.85993e-05
-3.53659e-05
-3.13725e-05
-2.66071e-05
-2.25709e-05
-1.97399e-05
-1.73943e-05
-1.46432e-05
-1.22639e-05
-1.01568e-05
-8.28e-06
-6.7994e-06
-5.4979e-06
-4.43392e-06
-3.57503e-06
-2.8615e-06
-2.27098e-06
-1.83141e-06
-1.46412e-06
-1.22422e-06
-9.92096e-07
-8.31043e-07
-6.69946e-07
-5.5335e-07
-3.58356e-07
-2.7115e-07
-1.42796e-07
-7.76538e-09
1.04868e-07
1.91743e-07
2.55962e-07
2.82682e-07
2.36825e-07
1.10588e-07
7.97422e-09
-1.24175e-07
-1.86465e-07
-2.91813e-07
-3.28175e-07
-3.41956e-07
-2.92598e-07
-2.6036e-07
-1.93667e-07
-1.1582e-07
9.1368e-09
7.20113e-08
1.4995e-07
1.97275e-07
2.35415e-07
1.82112e-07
1.99574e-07
1.57729e-07
1.41326e-07
8.24561e-08
6.04296e-08
2.02086e-08
-8.27547e-09
-4.33546e-08
-6.64091e-08
-1.06682e-07
-1.24807e-07
-1.41761e-07
-8.53385e-08
-3.20239e-08
5.86071e-08
9.48761e-08
1.47218e-07
1.46259e-07
1.46622e-07
1.07817e-07
5.89624e-08
1.4579e-08
-1.09168e-08
-5.66104e-08
-9.04514e-08
-1.28572e-07
-1.71831e-07
-2.38968e-07
-2.63133e-07
-3.07116e-07
-4.16742e-07
-6.82607e-07
-1.08703e-06
-1.78659e-06
-2.80067e-06
-5.33202e-06
-1.04393e-05
-3.12078e-05
-7.78867e-05
-0.000228413
-0.000360217
-0.0107386
-0.00867562
-0.00396414
-0.00064137
0.000147699
0.000152505
1.61013e-06
-8.91375e-05
-0.000117109
-0.000116792
-0.000105871
-9.32829e-05
-8.00675e-05
-6.85742e-05
-5.9116e-05
-5.09953e-05
-4.31459e-05
-3.62629e-05
-3.02191e-05
-2.49158e-05
-2.04524e-05
-1.66062e-05
-1.33887e-05
-1.07288e-05
-8.53435e-06
-6.72084e-06
-5.27964e-06
-4.10582e-06
-3.22869e-06
-2.50355e-06
-1.9692e-06
-1.51708e-06
-1.18051e-06
-8.23822e-07
-6.03896e-07
-3.85611e-07
-1.77673e-07
-7.46024e-09
1.0951e-07
1.89004e-07
2.30275e-07
1.96267e-07
7.66008e-08
-2.42749e-08
-1.54542e-07
-2.09749e-07
-3.01912e-07
-3.32532e-07
-3.42968e-07
-2.90187e-07
-2.51539e-07
-1.84316e-07
-1.05328e-07
1.40744e-08
6.54464e-08
1.29502e-07
1.73578e-07
2.19793e-07
1.79356e-07
1.99342e-07
1.67489e-07
1.56702e-07
9.42877e-08
5.97544e-08
1.47343e-08
-1.4955e-08
-4.648e-08
-7.05146e-08
-1.11353e-07
-1.24962e-07
-1.39854e-07
-8.69896e-08
-3.58361e-08
5.18271e-08
9.27349e-08
1.46358e-07
1.44081e-07
1.40622e-07
9.497e-08
3.04074e-08
-3.3941e-08
-7.81582e-08
-1.45625e-07
-2.21863e-07
-3.19979e-07
-4.40874e-07
-6.17446e-07
-8.04776e-07
-1.0805e-06
-1.51284e-06
-2.26458e-06
-3.35665e-06
-5.23031e-06
-7.98369e-06
-1.52307e-05
-3.01918e-05
-9.18208e-05
-0.000230763
-0.000679009
-0.00107186
-0.0180305
-0.0144079
-0.00655097
-0.00105445
0.000243712
0.00024932
1.34226e-06
-0.000147895
-0.000193337
-0.000193048
-0.000174537
-0.000153537
-0.000132059
-0.000113282
-9.73577e-05
-8.35979e-05
-7.07855e-05
-5.95231e-05
-4.96477e-05
-4.1018e-05
-3.36611e-05
-2.73495e-05
-2.20503e-05
-1.7645e-05
-1.4011e-05
-1.10133e-05
-8.60588e-06
-6.65154e-06
-5.15973e-06
-3.96095e-06
-3.06683e-06
-2.33257e-06
-1.7818e-06
-1.26991e-06
-9.22307e-07
-6.15999e-07
-3.41469e-07
-1.17662e-07
3.0737e-08
1.23518e-07
1.74516e-07
1.50335e-07
3.96901e-08
-5.4279e-08
-1.81174e-07
-2.31725e-07
-3.12266e-07
-3.33776e-07
-3.40291e-07
-2.85798e-07
-2.39618e-07
-1.71684e-07
-9.4144e-08
1.85182e-08
5.83876e-08
1.09474e-07
1.48215e-07
2.01211e-07
1.74932e-07
1.98532e-07
1.73977e-07
1.67817e-07
1.03923e-07
5.80026e-08
7.2094e-09
-2.39534e-08
-5.17976e-08
-7.46896e-08
-1.15806e-07
-1.25071e-07
-1.37319e-07
-8.73542e-08
-3.8965e-08
4.44188e-08
8.97113e-08
1.45361e-07
1.40951e-07
1.31976e-07
7.93697e-08
1.23659e-09
-8.16969e-08
-1.43872e-07
-2.31802e-07
-3.48273e-07
-5.05818e-07
-7.02502e-07
-9.83662e-07
-1.32919e-06
-1.83126e-06
-2.57657e-06
-3.79261e-06
-5.53761e-06
-8.51718e-06
-1.28979e-05
-2.45898e-05
-4.89476e-05
-0.000149804
-0.00037779
-0.00111355
-0.0017593
-0.0255258
-0.0200608
-0.00905356
-0.00144621
0.000336293
0.000339273
-1.98274e-07
-0.00020492
-0.000266482
-0.00026606
-0.000240139
-0.000211027
-0.000181598
-0.000155826
-0.000133704
-0.000114542
-9.69887e-05
-8.15517e-05
-6.8023e-05
-5.62308e-05
-4.61294e-05
-3.74833e-05
-3.02152e-05
-2.416e-05
-1.91587e-05
-1.50417e-05
-1.1727e-05
-9.03853e-06
-6.96731e-06
-5.32601e-06
-4.09434e-06
-3.09586e-06
-2.34195e-06
-1.68531e-06
-1.21903e-06
-8.29676e-07
-4.95276e-07
-2.24837e-07
-4.47629e-08
5.93913e-08
1.16903e-07
1.00255e-07
6.4786e-10
-8.34832e-08
-2.042e-07
-2.52254e-07
-3.23442e-07
-3.34494e-07
-3.35018e-07
-2.80591e-07
-2.26494e-07
-1.58662e-07
-8.44826e-08
1.98255e-08
4.95127e-08
8.87071e-08
1.21683e-07
1.79006e-07
1.67213e-07
1.95339e-07
1.77064e-07
1.73855e-07
1.10744e-07
5.46443e-08
-2.08077e-09
-3.55294e-08
-5.99365e-08
-8.04698e-08
-1.20115e-07
-1.25718e-07
-1.34958e-07
-8.81513e-08
-4.23059e-08
3.56525e-08
8.45827e-08
1.42342e-07
1.36082e-07
1.1984e-07
6.05802e-08
-2.87784e-08
-1.27535e-07
-2.06762e-07
-3.13774e-07
-4.67621e-07
-6.81635e-07
-9.51306e-07
-1.3305e-06
-1.82569e-06
-2.54317e-06
-3.58483e-06
-5.23112e-06
-7.57391e-06
-1.155e-05
-1.73774e-05
-3.30742e-05
-6.60801e-05
-0.00020347
-0.000515186
-0.00152148
-0.00240651
-0.0333134
-0.0255973
-0.0114361
-0.00180854
0.000424216
0.000419902
-3.33331e-06
-0.000259418
-0.000335266
-0.00033451
-0.000301441
-0.000264641
-0.000227705
-0.000195348
-0.000167405
-0.00014318
-0.000121196
-0.00010187
-8.49412e-05