/*--------------------------------*- C++ -*----------------------------------*\
| =========                 |                                                 |
| \\      /  F ield         | OpenFOAM: The Open Source CFD Toolbox           |
|  \\    /   O peration     | Version:  v1906                                 |
|   \\  /    A nd           | Web:      www.OpenFOAM.com                      |
|    \\/     M anipulation  |                                                 |
\*---------------------------------------------------------------------------*/
FoamFile
{
    version     2.0;
    format      ascii;
    class       volScalarField;
    location    "1";
    object      Uy;
}
// * * * * * * * * * * * * * * * * * * * * * * * * * * * * * * * * * * * * * //

dimensions      [0 1 -1 0 0 0 0];


internalField   nonuniform List<scalar> 
4000
(
0.0563933
0.00359665
-0.00176396
-0.00200094
-0.00213056
-0.00203752
-0.00204446
-0.00203444
-0.00204381
-0.00204763
-0.00205319
-0.00205677
-0.00206023
-0.00206283
-0.00206499
-0.00206677
-0.00206825
-0.00206945
-0.00207048
-0.0020714
-0.00207213
-0.00207271
-0.00207322
-0.00207363
-0.00207398
-0.00207421
-0.00207441
-0.00207459
-0.00207471
-0.0020748
-0.00207488
-0.00207494
-0.00207499
-0.002075
-0.00207503
-0.00207506
-0.00207507
-0.00207505
-0.00207508
-0.00207509
-0.00207509
-0.00207508
-0.00207509
-0.00207509
-0.0020751
-0.00207509
-0.00207509
-0.00207508
-0.00207509
-0.0020751
-0.0020751
-0.00207508
-0.00207509
-0.00207509
-0.00207511
-0.00207509
-0.00207509
-0.00207509
-0.00207511
-0.00207509
-0.00207509
-0.00207509
-0.0020751
-0.00207509
-0.00207509
-0.00207508
-0.00207509
-0.00207509
-0.00207509
-0.00207509
-0.00207509
-0.00207509
-0.0020751
-0.00207509
-0.00207509
-0.00207509
-0.00207509
-0.00207509
-0.00207509
-0.00207508
-0.00207508
-0.00207507
-0.00207507
-0.00207505
-0.00207504
-0.00207501
-0.00207497
-0.00207492
-0.00207485
-0.00207475
-0.00207463
-0.00207448
-0.00207434
-0.00207432
-0.00207462
-0.00207526
-0.00207437
-0.00206117
-0.00202116
-0.00215158
0.128443
0.0160039
0.000988097
-6.99368e-05
-0.000504311
-0.000189074
-0.00019993
-0.000161641
-0.000190448
-0.000202552
-0.000221715
-0.00023449
-0.000246702
-0.000256284
-0.000264303
-0.000270849
-0.000276458
-0.000281112
-0.000285111
-0.000288647
-0.00029158
-0.00029395
-0.000296006
-0.000297675
-0.000299059
-0.000300096
-0.000300953
-0.000301675
-0.000302208
-0.000302581
-0.000302945
-0.000303173
-0.000303364
-0.00030348
-0.000303567
-0.00030366
-0.00030374
-0.000303719
-0.000303779
-0.000303824
-0.00030383
-0.000303811
-0.000303845
-0.000303829
-0.000303839
-0.000303826
-0.000303842
-0.00030381
-0.000303822
-0.000303846
-0.000303875
-0.000303832
-0.000303835
-0.000303847
-0.000303881
-0.000303845
-0.000303838
-0.000303837
-0.000303873
-0.000303841
-0.000303841
-0.000303834
-0.000303857
-0.000303846
-0.000303846
-0.000303825
-0.000303847
-0.000303837
-0.000303849
-0.000303831
-0.000303845
-0.000303834
-0.00030385
-0.000303832
-0.000303843
-0.00030384
-0.000303844
-0.000303829
-0.000303831
-0.000303803
-0.000303808
-0.000303783
-0.000303755
-0.000303698
-0.000303655
-0.000303556
-0.000303426
-0.000303238
-0.000302984
-0.000302631
-0.000302168
-0.000301594
-0.000300978
-0.000300622
-0.000300844
-0.000301418
-0.000293308
-0.00023953
-7.33904e-05
-0.000219126
0.135884
0.0244324
0.0033462
0.000826681
0.000104517
0.000610402
0.0006172
0.000682063
0.000635632
0.000613143
0.000579481
0.00055623
0.000534486
0.0005172
0.000502544
0.000490534
0.000480126
0.000471319
0.000463814
0.000457261
0.000451695
0.000447125
0.000443232
0.000440041
0.000437427
0.000435377
0.000433675
0.00043228
0.00043123
0.000430457
0.000429755
0.000429291
0.000428936
0.000428675
0.000428497
0.000428354
0.000428192
0.00042816
0.000428089
0.000428018
0.000427981
0.000427995
0.00042795
0.00042798
0.000427986
0.000428004
0.000427978
0.000427994
0.000427988
0.000427978
0.000427924
0.000427951
0.000427954
0.000427951
0.000427901
0.000427926
0.000427944
0.000427964
0.000427927
0.000427958
0.000427958
0.000427965
0.00042794
0.000427957
0.00042795
0.000427971
0.000427951
0.000427965
0.000427946
0.000427963
0.000427954
0.000427966
0.000427943
0.000427961
0.000427953
0.000427956
0.000427954
0.00042798
0.000427978
0.000428017
0.00042803
0.00042807
0.000428124
0.000428228
0.00042833
0.000428509
0.00042876
0.000429123
0.000429615
0.000430296
0.000431196
0.000432322
0.000433634
0.000434627
0.000435279
0.000436409
0.000458829
0.000569117
0.000943204
0.00117813
0.123265
0.0286587
0.00469505
0.000703139
-0.000183493
0.000445515
0.000485426
0.000569324
0.000510126
0.00047725
0.000430776
0.000397486
0.00036673
0.000341868
0.000320425
0.000303502
0.000288843
0.000276261
0.000265536
0.000256254
0.000248278
0.000241609
0.000235991
0.000231326
0.000227469
0.000224443
0.000221933
0.000219883
0.000218327
0.000217157
0.000216158
0.000215427
0.000214915
0.00021454
0.000214248
0.000214034
0.000213835
0.000213736
0.000213631
0.00021354
0.000213476
0.000213488
0.000213454
0.000213471
0.000213496
0.000213523
0.000213497
0.000213492
0.000213478
0.000213478
0.000213422
0.00021342
0.000213421
0.000213422
0.000213373
0.00021339
0.000213419
0.000213448
0.000213424
0.000213446
0.000213446
0.00021345
0.000213425
0.000213441
0.000213434
0.00021345
0.000213436
0.000213445
0.000213431
0.000213442
0.000213438
0.000213449
0.00021343
0.00021344
0.000213433
0.000213441
0.000213441
0.000213472
0.00021348
0.000213522
0.00021356
0.000213612
0.000213693
0.000213839
0.000214004
0.00021426
0.000214625
0.000215154
0.000215875
0.000216868
0.000218198
0.000219869
0.00022195
0.000223812
0.000226204
0.000230594
0.000271585
0.000444181
0.00104981
0.00176944
0.109936
0.0309651
0.00570052
0.000549832
-0.000405515
0.000300226
0.000374739
0.000470677
0.000403055
0.000361646
0.000305506
0.00026444
0.000226942
0.000196519
0.000170206
0.000149189
0.000131038
0.000115277
0.000101751
9.00723e-05
7.99656e-05
7.13536e-05
6.40426e-05
5.78975e-05
5.26445e-05
4.86208e-05
4.54151e-05
4.27879e-05
4.07645e-05
3.92383e-05
3.7998e-05
3.70215e-05
3.63318e-05
3.58752e-05
3.54829e-05
3.51838e-05
3.49451e-05
3.48031e-05
3.4651e-05
3.45518e-05
3.44547e-05
3.44562e-05
3.44432e-05
3.44512e-05
3.44691e-05
3.45139e-05
3.44893e-05
3.44788e-05
3.4448e-05
3.44575e-05
3.44033e-05
3.43855e-05
3.43751e-05
3.43795e-05
3.43283e-05
3.43463e-05
3.43783e-05
3.4418e-05
3.4398e-05
3.44193e-05
3.44118e-05
3.44188e-05
3.43882e-05
3.44048e-05
3.4395e-05
3.44146e-05
3.4402e-05
3.4409e-05
3.43957e-05
3.44099e-05
3.44028e-05
3.44177e-05
3.43985e-05
3.44093e-05
3.43961e-05
3.44126e-05
3.44127e-05
3.44479e-05
3.4463e-05
3.45106e-05
3.45634e-05
3.46361e-05
3.4734e-05
3.4918e-05
3.51351e-05
3.54624e-05
3.59239e-05
3.65969e-05
3.7513e-05
3.87682e-05
4.04701e-05
4.2632e-05
4.54699e-05
4.83669e-05
5.33667e-05
6.24389e-05
0.000123659
0.000349319
0.0011684
0.00229722
0.0982517
0.0321898
0.0065252
0.000503952
-0.0004709
0.000279348
0.000385872
0.000488367
0.000416418
0.000369136
0.000307069
0.000261294
0.000220141
0.000187021
0.000158361
0.000134212
0.000113413
9.52531e-05
7.95703e-05
6.60412e-05
5.43309e-05
4.42982e-05
3.5741e-05
2.86029e-05
2.24207e-05
1.76806e-05
1.39103e-05
1.08062e-05
8.36108e-06
6.50593e-06
5.05059e-06
3.87323e-06
2.97164e-06
2.41347e-06
1.92277e-06
1.54226e-06
1.24378e-06
1.07842e-06
8.74228e-07
7.77611e-07
6.50309e-07
6.27707e-07
6.27616e-07
6.47308e-07
6.41901e-07
7.04701e-07
6.74003e-07
6.74587e-07
6.29483e-07
6.47681e-07
5.89034e-07
5.69796e-07
5.42009e-07
5.55101e-07
4.92109e-07
5.19849e-07
5.43852e-07
6.01094e-07
5.74341e-07
6.03198e-07
5.78412e-07
5.96207e-07
5.56521e-07
5.77352e-07
5.58956e-07
5.90484e-07
5.72643e-07
5.86634e-07
5.65155e-07
5.95011e-07
5.76303e-07
6.00911e-07
5.76661e-07
5.93458e-07
5.70042e-07
5.958e-07
5.94318e-07
6.34655e-07
6.51357e-07
7.10979e-07
7.66121e-07
8.64532e-07
9.7107e-07
1.18803e-06
1.44475e-06
1.83408e-06
2.40286e-06
3.2253e-06
4.32656e-06
5.817e-06
7.83932e-06
1.04477e-05
1.40171e-05
1.80339e-05
2.57075e-05
3.94751e-05
0.00011942
0.000384009
0.00139879
0.00284705
0.0876423
0.032501
0.00711594
0.000479645
-0.000484601
0.000284221
0.000421146
0.000528037
0.000454001
0.000402273
0.000335697
0.000286037
0.000241616
0.000205774
0.000174751
0.000148355
0.000125706
0.000105912
8.8743e-05
7.39308e-05
6.11557e-05
5.02389e-05
4.09268e-05
3.33029e-05
2.67257e-05
2.15704e-05
1.7359e-05
1.38826e-05
1.10917e-05
8.94759e-06
7.2887e-06
5.96702e-06
4.86468e-06
4.17605e-06
3.61556e-06
3.18481e-06
2.81773e-06
2.63818e-06
2.38557e-06
2.29275e-06
2.14774e-06
2.09488e-06
2.09398e-06
2.13917e-06
2.11026e-06
2.18616e-06
2.14478e-06
2.16272e-06
2.11027e-06
2.13652e-06
2.07015e-06
2.05256e-06
2.00697e-06
2.03215e-06
1.95388e-06
1.99171e-06
2.00436e-06
2.08059e-06
2.04512e-06
2.08273e-06
2.03813e-06
2.06636e-06
2.01943e-06
2.04582e-06
2.01586e-06
2.06141e-06
2.03754e-06
2.06265e-06
2.02969e-06
2.07773e-06
2.0473e-06
2.08208e-06
2.05102e-06
2.07554e-06
2.04272e-06
2.07497e-06
2.07211e-06
2.11806e-06
2.1317e-06
2.20635e-06
2.25736e-06
2.37906e-06
2.49127e-06
2.7327e-06
3.01839e-06
3.46138e-06
4.09742e-06
5.06e-06
6.3288e-06
8.02296e-06
1.03119e-05
1.33135e-05
1.75661e-05
2.27076e-05
3.28531e-05
5.08312e-05
0.000147174
0.00044626
0.00162597
0.00331318
0.0779336
0.0320462
0.0074594
0.000443316
-0.000489645
0.000279276
0.000443189
0.000552161
0.000478237
0.00042375
0.000354532
0.000302349
0.000255764
0.000217972
0.000185249
0.000157407
0.000133537
0.00011268
9.45148e-05
7.87758e-05
6.52102e-05
5.36086e-05
4.36423e-05
3.55391e-05
2.8533e-05
2.29696e-05
1.84374e-05
1.47048e-05
1.16794e-05
9.33372e-06
7.51444e-06
6.13229e-06
4.92725e-06
4.14224e-06
3.55689e-06
3.0886e-06
2.64818e-06
2.45537e-06
2.16203e-06
2.06402e-06
1.91602e-06
1.83702e-06
1.82514e-06
1.89537e-06
1.85155e-06
1.93418e-06
1.88456e-06
1.91579e-06
1.86297e-06
1.8942e-06
1.82415e-06
1.80454e-06
1.74287e-06
1.77984e-06
1.69319e-06
1.73503e-06
1.7389e-06
1.82829e-06
1.78859e-06
1.83088e-06
1.7705e-06
1.80207e-06
1.75298e-06
1.78363e-06
1.74395e-06
1.79884e-06
1.77394e-06
1.80802e-06
1.7675e-06
1.82796e-06
1.79171e-06
1.83286e-06
1.79673e-06
1.82699e-06
1.78876e-06
1.8225e-06
1.82047e-06
1.87117e-06
1.87969e-06
1.96659e-06
2.01428e-06
2.15188e-06
2.27204e-06
2.52899e-06
2.83645e-06
3.33996e-06
4.00761e-06
5.01976e-06
6.37093e-06
8.18573e-06
1.06508e-05
1.39527e-05
1.87922e-05
2.49924e-05
3.77475e-05
6.00074e-05
0.000170751
0.000496163
0.00179877
0.00365081
0.0690906
0.0309868
0.00758073
0.000398294
-0.00048964
0.000264941
0.000450902
0.00055967
0.000487785
0.000432264
0.00036239
0.000309243
0.000261898
0.000223296
0.000189835
0.000161352
0.000136888
0.000115526
9.68714e-05
8.06189e-05
6.65974e-05
5.45961e-05
4.42064e-05
3.57648e-05
2.84815e-05
2.26266e-05
1.78889e-05
1.40113e-05
1.08551e-05
8.40221e-06
6.47159e-06
5.07718e-06
3.86281e-06
3.02241e-06
2.42998e-06
1.94908e-06
1.46762e-06
1.25936e-06
9.34722e-07
8.13687e-07
6.72326e-07
5.76818e-07
5.47003e-07
6.34024e-07
5.85637e-07
6.68695e-07
6.17759e-07
6.55861e-07
6.05515e-07
6.38961e-07
5.70428e-07
5.46852e-07
4.69406e-07
5.15593e-07
4.31844e-07
4.7205e-07
4.69512e-07
5.6341e-07
5.2561e-07
5.67009e-07
4.97096e-07
5.24238e-07
4.76798e-07
5.10629e-07
4.65388e-07
5.22911e-07
5.02741e-07
5.41918e-07
5.00241e-07
5.65403e-07
5.29765e-07
5.73451e-07
5.34648e-07
5.67579e-07
5.2764e-07
5.59417e-07
5.58549e-07
6.14233e-07
6.16733e-07
7.10214e-07
7.58734e-07
9.07666e-07
1.0427e-06
1.31015e-06
1.63372e-06
2.16277e-06
2.84514e-06
3.83543e-06
5.19452e-06
7.05634e-06
9.61502e-06
1.31189e-05
1.84267e-05
2.55464e-05
4.06787e-05
6.67072e-05
0.000188652
0.000530446
0.00191176
0.00385997
0.0610167
0.0294498
0.00750878
0.00035107
-0.000482842
0.000245125
0.000447205
0.000553777
0.000485428
0.000430403
0.000361624
0.000308898
0.000262047
0.000223675
0.000190335
0.000161962
0.000137512
0.00011618
9.75222e-05
8.11884e-05
6.70615e-05
5.49724e-05
4.44568e-05
3.5874e-05
2.85295e-05
2.25529e-05
1.77138e-05
1.3786e-05
1.05765e-05
8.08487e-06
6.08048e-06
4.66799e-06
3.47522e-06
2.59026e-06
1.98803e-06
1.52629e-06
1.0442e-06
8.2396e-07
4.89662e-07
3.52688e-07
2.21722e-07
1.22953e-07
7.18932e-08
1.63858e-07
1.21215e-07
1.98977e-07
1.53512e-07
1.95587e-07
1.46784e-07
1.80815e-07
1.16159e-07
8.97097e-08
-2.74345e-09
4.87684e-08
-2.29753e-08
1.37399e-08
4.66581e-09
9.45934e-08
6.30909e-08
9.97761e-08
2.55725e-08
4.44318e-08
-2.87688e-10
3.78699e-08
-9.5052e-09
4.64441e-08
3.24509e-08
7.41224e-08
3.6717e-08
1.00876e-07
7.09391e-08
1.13248e-07
7.54285e-08
1.08348e-07
6.86101e-08
9.80455e-08
9.62359e-08
1.57959e-07
1.54828e-07
2.48273e-07
3.01404e-07
4.47772e-07
5.90899e-07
8.55458e-07
1.18198e-06
1.6944e-06
2.36093e-06
3.33389e-06
4.68601e-06
6.56707e-06
9.17243e-06
1.27981e-05
1.84514e-05
2.62988e-05
4.33433e-05
7.22676e-05
0.000201578
0.000550087
0.00196723
0.00394887
0.053591
0.0275289
0.00726755
0.000304738
-0.000468847
0.000221761
0.000433359
0.000535965
0.000472275
0.000419058
0.000352874
0.000301759
0.000256474
0.000219232
0.000186753
0.000159153
0.00013529
0.000114478
9.62566e-05
8.02505e-05
6.63529e-05
5.44578e-05
4.4108e-05
3.55827e-05
2.83585e-05
2.24372e-05
1.76061e-05
1.37162e-05
1.0532e-05
8.06032e-06
6.03736e-06
4.6082e-06
3.44912e-06
2.54623e-06
1.9226e-06
1.46603e-06
9.95749e-07
7.64e-07
4.41494e-07
3.01775e-07
1.76588e-07
9.04665e-08
2.2509e-08
1.06354e-07
7.60325e-08
1.44999e-07
1.08039e-07
1.54167e-07
1.06321e-07
1.38698e-07
7.99818e-08
5.50214e-08
-4.79203e-08
8.15803e-10
-5.34914e-08
-1.99552e-08
-3.35345e-08
4.42531e-08
2.09397e-08
5.04712e-08
-2.39402e-08
-1.50051e-08
-5.79753e-08
-1.45755e-08
-6.03365e-08
-7.83387e-09
-1.49087e-08
2.70177e-08
-1.95387e-09
5.71301e-08
3.56591e-08
7.27632e-08
3.86848e-08
6.96938e-08
3.07004e-08
5.87436e-08
5.28323e-08
1.18994e-07
1.12434e-07
1.98136e-07
2.57905e-07
3.89121e-07
5.31405e-07
7.81052e-07
1.09839e-06
1.59852e-06
2.25416e-06
3.21424e-06
4.54413e-06
6.41293e-06
9.01804e-06
1.26793e-05
1.85342e-05
2.68702e-05
4.52408e-05
7.6039e-05
0.000208668
0.000554781
0.00196704
0.00392554
0.0467064
0.0252971
0.0068779
0.000260739
-0.000447526
0.00019621
0.000410331
0.000507329
0.000449126
0.000398847
0.000336543
0.000288087
0.000245295
0.000209983
0.000179031
0.00015278
0.000130036
0.000110188
9.27967e-05
7.7489e-05
6.41408e-05
5.26924e-05
4.27696e-05
3.45071e-05
2.75511e-05
2.18487e-05
1.71491e-05
1.33784e-05
1.03046e-05
7.9083e-06
5.93391e-06
4.51462e-06
3.40037e-06
2.51978e-06
1.88845e-06
1.43047e-06
9.88959e-07
7.44401e-07
4.3884e-07
2.9444e-07
1.69209e-07
1.00858e-07
2.7054e-08
9.11437e-08
7.56791e-08
1.35454e-07
1.07553e-07
1.57148e-07
1.12776e-07
1.39089e-07
8.90429e-08
6.92679e-08
-3.5841e-08
6.78243e-10
-3.42335e-08
-3.22227e-09
-1.71182e-08
4.15712e-08
2.61548e-08
4.74186e-08
-2.34507e-08
-2.55788e-08
-6.75393e-08
-2.03435e-08
-5.93874e-08
-1.30449e-08
-1.03888e-08
2.93253e-08
1.20302e-08
6.15636e-08
5.10257e-08
8.02731e-08
5.0889e-08
7.917e-08
4.17526e-08
6.79614e-08
5.73549e-08
1.22633e-07
1.16891e-07
1.87698e-07
2.53993e-07
3.71379e-07
5.1432e-07
7.48788e-07
1.05244e-06
1.53517e-06
2.17104e-06
3.10102e-06
4.38071e-06
6.19083e-06
8.73885e-06
1.2341e-05
1.82309e-05
2.67812e-05
4.58127e-05
7.73847e-05
0.000209255
0.000544366
0.00191379
0.00379857
0.0402734
0.0228134
0.00635898
0.000219861
-0.000418649
0.000169752
0.00037929
0.000469132
0.00041701
0.000370633
0.000313307
0.000268434
0.000228938
0.000196257
0.000167442
0.000143037
0.000121895
0.000103412
8.7206e-05
7.29254e-05
6.04283e-05
4.96651e-05
4.03885e-05
3.26003e-05
2.60481e-05
2.0702e-05
1.6264e-05
1.26885e-05
9.8055e-06
7.53765e-06
5.67182e-06
4.30233e-06
3.24457e-06
2.41748e-06
1.80669e-06
1.35003e-06
9.50071e-07
7.01753e-07
4.15086e-07
2.71757e-07
1.47746e-07
9.17091e-08
2.47289e-08
6.2493e-08
6.0297e-08
1.13515e-07
9.45789e-08
1.45605e-07
1.08743e-07
1.24757e-07
8.42869e-08
6.96543e-08
-2.76304e-08
-8.30269e-09
-2.5999e-08
2.81046e-09
-7.81701e-09
2.8171e-08
1.77664e-08
3.12837e-08
-3.32643e-08
-4.69778e-08
-8.60981e-08
-3.88115e-08
-6.60583e-08
-2.83278e-08
-1.43872e-08
2.10923e-08
1.69249e-08
5.53122e-08
5.63756e-08
7.74138e-08
5.27447e-08
7.82292e-08
4.42059e-08
6.62402e-08
5.37462e-08
1.11528e-07
1.10831e-07
1.63241e-07
2.32431e-07
3.36894e-07
4.76454e-07
6.93421e-07
9.77803e-07
1.43004e-06
2.0314e-06
2.90869e-06
4.11158e-06
5.81578e-06
8.24672e-06
1.16961e-05
1.74424e-05
2.59151e-05
4.48974e-05
7.61094e-05
0.000203235
0.000519312
0.00181122
0.00357752
0.0342158
0.0201262
0.00572861
0.000182408
-0.000382121
0.000143436
0.000341444
0.000422684
0.000377048
0.000335387
0.000283957
0.000243473
0.000207968
0.000178517
0.000152387
0.000130257
0.000111144
9.43833e-05
7.96801e-05
6.67147e-05
5.53394e-05
4.54942e-05
3.70417e-05
2.99282e-05
2.39163e-05
1.90383e-05
1.49827e-05
1.16813e-05
9.05469e-06
6.96988e-06
5.25967e-06
3.98211e-06
2.99741e-06
2.24249e-06
1.67796e-06
1.23606e-06
8.79742e-07
6.4247e-07
3.78488e-07
2.41512e-07
1.23917e-07
7.49151e-08
2.19549e-08
3.67752e-08
4.00018e-08
9.14334e-08
8.04154e-08
1.30642e-07
1.03646e-07
1.0922e-07
7.66769e-08
6.71465e-08
-1.45479e-08
-1.14384e-08
-1.79566e-08
9.19187e-09
3.53394e-09
1.8589e-08
6.52194e-09
1.36561e-08
-4.31505e-08
-6.72817e-08
-1.02002e-07
-5.74259e-08
-7.07396e-08
-4.09109e-08
-1.73051e-08
1.46463e-08
2.10695e-08
5.23162e-08
6.09994e-08
7.69219e-08
5.47952e-08
7.77084e-08
4.8686e-08
6.44598e-08
5.2007e-08
9.77527e-08
1.02382e-07
1.37833e-07
2.02741e-07
2.95476e-07
4.24878e-07
6.21309e-07
8.80232e-07
1.29016e-06
1.8434e-06
2.64778e-06
3.75097e-06
5.30873e-06
7.5621e-06
1.07713e-05
1.61931e-05
2.42916e-05
4.2507e-05
7.22376e-05
0.000190851
0.000480541
0.0016639
0.00327259
0.0284672
0.0172759
0.00500347
0.000148289
-0.000338146
0.000117987
0.000297924
0.000369232
0.000330347
0.00029408
0.000249298
0.000213892
0.000182967
0.000157249
0.000134283
0.000114799
9.80788e-05
8.33586e-05
7.04359e-05
5.90378e-05
4.90138e-05
4.03087e-05
3.28306e-05
2.65624e-05
2.12277e-05
1.69141e-05
1.33386e-05
1.03963e-05
8.07583e-06
6.22874e-06
4.71159e-06
3.56387e-06
2.67357e-06
2.00594e-06
1.50231e-06
1.09783e-06
7.80723e-07
5.69771e-07
3.32183e-07
2.06898e-07
9.92444e-08
5.69056e-08
1.61694e-08
1.94575e-08
1.74827e-08
7.13614e-08
6.67879e-08
1.15441e-07
9.66753e-08
9.68147e-08
6.78467e-08
6.54034e-08
1.37141e-09
-3.98598e-09
-8.5838e-09
1.91221e-08
1.54847e-08
1.70433e-08
-5.91433e-09
-2.44161e-09
-5.19706e-08
-8.14012e-08
-1.14459e-07
-7.07028e-08
-7.34424e-08
-4.67534e-08
-1.95299e-08
1.4083e-08
2.46362e-08
5.52167e-08
6.5783e-08
8.11909e-08
5.89912e-08
8.01211e-08
5.59588e-08
6.61742e-08
5.23251e-08
8.59445e-08
9.14299e-08
1.15412e-07
1.67556e-07
2.50511e-07
3.63009e-07
5.36546e-07
7.63886e-07
1.12296e-06
1.61517e-06
2.33056e-06
3.31176e-06
4.69055e-06
6.70726e-06
9.59506e-06
1.45185e-05
2.19536e-05
3.87117e-05
6.58967e-05
0.000172546
0.000429283
0.00147695
0.00289439
0.0229687
0.0142963
0.00419936
0.000117161
-0.000287246
9.38255e-05
0.00024978
0.000309951
0.000277986
0.000247666
0.000210138
0.000180378
0.000154529
0.000132958
0.000113555
9.70429e-05
8.30073e-05
7.06072e-05
5.97023e-05
5.0088e-05
4.16053e-05
3.42367e-05
2.78702e-05
2.25809e-05
1.80488e-05
1.43912e-05
1.13663e-05
8.86807e-06
6.89323e-06
5.33282e-06
4.04097e-06
3.05507e-06
2.28027e-06
1.71754e-06
1.28003e-06
9.37378e-07
6.55596e-07
4.8333e-07
2.7513e-07
1.68009e-07
6.94839e-08
3.91809e-08
3.5004e-09
8.56317e-09
-7.17928e-09
5.07733e-08
5.03476e-08
9.9724e-08
8.32969e-08
8.69285e-08
5.56938e-08
6.48279e-08
1.47232e-08
1.28539e-08
1.13386e-10
3.12083e-08
2.35458e-08
2.13072e-08
-2.02017e-08
-1.73158e-08
-6.27336e-08
-8.91066e-08
-1.26637e-07
-7.89024e-08
-7.76621e-08
-4.71676e-08
-2.42053e-08
1.77427e-08
2.53386e-08
6.11847e-08
6.79092e-08
8.72233e-08
6.26227e-08
8.41976e-08
6.17939e-08
7.08756e-08
5.08829e-08
7.59198e-08
7.52753e-08
9.42201e-08
1.26783e-07
2.00749e-07
2.91284e-07
4.3981e-07
6.29392e-07
9.32423e-07
1.35001e-06
1.96457e-06
2.80161e-06
3.97535e-06
5.70143e-06
8.19294e-06
1.24595e-05
1.89611e-05
3.36279e-05
5.7301e-05
0.000148938
0.00036702
0.00125589
0.0024538
0.0176677
0.0112169
0.00333142
8.85366e-05
-0.000230238
7.10965e-05
0.000197984
0.000245968
0.00022102
0.000197092
0.000167287
0.000143627
0.000123255
0.000106172
9.06443e-05
7.73865e-05
6.62598e-05
5.64138e-05
4.77258e-05
4.00733e-05
3.32893e-05
2.74132e-05
2.22877e-05
1.80783e-05
1.44507e-05
1.15363e-05
9.11308e-06
7.13153e-06
5.53898e-06
4.30303e-06
3.26528e-06
2.46791e-06
1.82613e-06
1.3865e-06
1.01868e-06
7.5532e-07
5.09892e-07
3.84056e-07
2.07379e-07
1.25928e-07
3.3116e-08
2.12739e-08
-1.57893e-08
2.57252e-10
-3.20387e-08
2.88062e-08
2.94863e-08
8.39948e-08
6.30738e-08
7.8444e-08
4.10736e-08
6.58573e-08
2.35706e-08
3.63316e-08
8.80313e-09
4.38519e-08
2.64801e-08
2.81243e-08
-3.49128e-08
-3.08919e-08
-7.63208e-08
-9.096e-08
-1.38662e-07
-8.27014e-08
-8.38796e-08
-4.39082e-08
-3.09894e-08
2.30926e-08
2.3389e-08
6.7383e-08
6.71588e-08
9.27048e-08
6.42296e-08
8.93737e-08
6.40167e-08
7.76485e-08
4.66206e-08
6.68811e-08
5.42818e-08
7.21611e-08
8.24282e-08
1.45538e-07
2.11523e-07
3.32774e-07
4.78529e-07
7.2301e-07
1.05263e-06
1.55712e-06
2.23042e-06
3.1772e-06
4.56762e-06
6.59522e-06
1.00682e-05
1.53974e-05
2.74203e-05
4.67463e-05
0.000120791
0.000295457
0.00100654
0.00196194
0.0125158
0.00806301
0.00241431
6.18665e-05
-0.000168197
4.97182e-05
0.00014344
0.000178368
0.000160486
0.000143299
0.000121565
0.00010435
8.97608e-05
7.7434e-05
6.60124e-05
5.62398e-05
4.81891e-05
4.10772e-05
3.47694e-05
2.92139e-05
2.42585e-05
1.99858e-05
1.62163e-05
1.31634e-05
1.05139e-05
8.41761e-06
6.63802e-06
5.22409e-06
4.05084e-06
3.16445e-06
2.4053e-06
1.8184e-06
1.32437e-06
1.02051e-06
7.31137e-07
5.53581e-07
3.50549e-07
2.74023e-07
1.3094e-07
8.1001e-08
-7.71313e-09
9.91047e-10
-3.85887e-08
-9.24656e-09
-5.46824e-08
5.78955e-09
4.81923e-09
6.81035e-08
3.9288e-08
6.97023e-08
2.67627e-08
6.81055e-08
2.9247e-08
6.20567e-08
1.97084e-08
5.51828e-08
2.55097e-08
3.38375e-08
-4.8001e-08
-4.33077e-08
-9.13242e-08
-8.88595e-08
-1.48146e-07
-8.36624e-08
-8.99351e-08
-3.92415e-08
-3.73907e-08
2.76829e-08
2.06581e-08
7.1612e-08
6.47739e-08
9.63886e-08
6.37392e-08
9.47823e-08
6.30438e-08
8.43936e-08
4.08209e-08
5.73951e-08
3.07719e-08
4.74362e-08
3.73488e-08
8.53723e-08
1.26265e-07
2.18052e-07
3.1462e-07
4.99122e-07
7.30327e-07
1.11583e-06
1.61101e-06
2.31173e-06
3.33252e-06
4.83857e-06
7.40755e-06
1.13671e-05
2.02947e-05
3.45975e-05
8.89887e-05
0.000216474
0.000734973
0.00143006
0.00746831
0.00485782
0.00146233
3.65803e-05
-0.000102404
2.94278e-05
8.69926e-05
0.00010821
9.74034e-05
8.72163e-05
7.37951e-05
6.32619e-05
5.46706e-05
4.72984e-05
4.01391e-05
3.4021e-05
2.91665e-05
2.4909e-05
2.1107e-05
1.77409e-05
1.47144e-05
1.21164e-05
9.79129e-06
7.95286e-06
6.32945e-06
5.10301e-06
4.0065e-06
3.18714e-06
2.46788e-06
1.94574e-06
1.48349e-06
1.12358e-06
7.91681e-07
6.26569e-07
4.30288e-07
3.36541e-07
1.8403e-07
1.55573e-07
4.92442e-08
3.2045e-08
-4.91565e-08
-2.41952e-08
-6.18721e-08
-2.25489e-08
-7.36112e-08
-1.76856e-08
-2.13999e-08
5.06608e-08
1.65874e-08
5.89294e-08
1.58312e-08
7.02572e-08
3.46665e-08
8.54062e-08
3.46428e-08
6.37514e-08
2.2592e-08
3.53366e-08
-5.79761e-08
-5.5074e-08
-1.05335e-07
-8.5828e-08
-1.52257e-07
-8.40146e-08
-9.32676e-08
-3.5671e-08
-4.09426e-08
2.95184e-08
1.89334e-08
7.25257e-08
6.19046e-08
9.7601e-08
6.20493e-08
9.86517e-08
6.0874e-08
8.82049e-08
3.53129e-08
4.5954e-08
7.09864e-09
1.9055e-08
-6.47048e-09
2.17328e-08
3.77382e-08
9.82312e-08
1.42119e-07
2.64246e-07
3.91918e-07
6.4868e-07
9.57366e-07
1.39624e-06
2.02447e-06
2.9649e-06
4.54815e-06
6.9915e-06
1.24896e-05
2.12727e-05
5.45099e-05
0.000132095
0.000447419
0.000869523
0.00248252
0.00162252
0.000489525
1.2114e-05
-3.42939e-05
9.83492e-06
2.94279e-05
3.65315e-05
3.27864e-05
2.97618e-05
2.48025e-05
2.10853e-05
1.86196e-05
1.63219e-05
1.35189e-05
1.11548e-05
9.57523e-06
8.23307e-06
7.019e-06
5.896e-06
4.86129e-06
3.97818e-06
3.1504e-06
2.5655e-06
1.99693e-06
1.66332e-06
1.28447e-06
1.06725e-06
8.28282e-07
6.78318e-07
5.23424e-07
4.00494e-07
2.4535e-07
2.13323e-07
1.25367e-07
1.10912e-07
1.57315e-08
3.11889e-08
-3.38492e-08
-2.23296e-08
-8.81654e-08
-5.50338e-08
-8.42258e-08
-4.05056e-08
-8.85863e-08
-4.09439e-08
-4.60946e-08
3.02635e-08
-1.1947e-09
4.5487e-08
1.03582e-08
7.13073e-08
4.23796e-08
1.03376e-07
5.37098e-08
6.92588e-08
1.936e-08
3.11531e-08
-6.43755e-08
-6.64045e-08
-1.15892e-07
-8.45149e-08
-1.49375e-07
-8.52772e-08
-9.24714e-08
-3.48434e-08
-4.06195e-08
2.77866e-08
1.87571e-08
6.99433e-08
5.91006e-08
9.60641e-08
6.06662e-08
9.9164e-08
5.97258e-08
8.70752e-08
3.11867e-08
3.21203e-08
-1.52863e-08
-1.25451e-08
-4.83389e-08
-4.3109e-08
-5.20852e-08
-2.45316e-08
-3.37959e-08
2.15444e-08
4.61992e-08
1.64782e-07
2.83398e-07
4.49752e-07
6.72338e-07
1.01964e-06
1.56666e-06
2.40373e-06
4.2667e-06
7.22753e-06
1.83989e-05
4.44371e-05
0.000150232
0.000291771
-0.00248285
-0.00162271
-0.000490187
-1.2084e-05
3.46005e-05
-9.52441e-06
-2.85029e-05
-3.56465e-05
-3.23526e-05
-2.81548e-05
-2.45866e-05
-2.14574e-05
-1.77519e-05
-1.49364e-05
-1.3347e-05
-1.19283e-05
-1.01975e-05
-8.61648e-06
-7.21205e-06
-6.07146e-06
-5.09598e-06
-4.24937e-06
-3.56412e-06
-2.88014e-06
-2.3806e-06
-1.82499e-06
-1.46439e-06
-1.08408e-06
-8.30701e-07
-6.04814e-07
-4.50358e-07
-3.33288e-07
-2.99306e-07
-2.07532e-07
-1.78334e-07
-1.156e-07
-1.49718e-07
-9.61442e-08
-1.15365e-07
-8.20465e-08
-1.2406e-07
-8.98413e-08
-1.05754e-07
-6.23953e-08
-1.00297e-07
-6.31393e-08
-6.65056e-08
6.92608e-09
-1.24851e-08
3.05678e-08
1.06281e-08
7.14672e-08
5.33341e-08
1.15316e-07
7.51493e-08
7.2463e-08
1.65784e-08
2.17334e-08
-6.76963e-08
-7.68883e-08
-1.21383e-07
-8.57985e-08
-1.39966e-07
-8.73195e-08
-8.78978e-08
-3.68441e-08
-3.72641e-08
2.30603e-08
1.93009e-08
6.45473e-08
5.64011e-08
9.17836e-08
6.09033e-08
9.56189e-08
6.06525e-08
8.1085e-08
2.82652e-08
1.69e-08
-3.59009e-08
-4.56615e-08
-8.83227e-08
-1.06675e-07
-1.4108e-07
-1.48373e-07
-2.08067e-07
-2.25009e-07
-2.99322e-07
-3.2529e-07
-3.97565e-07
-5.07509e-07
-6.94687e-07
-9.50001e-07
-1.45653e-06
-2.25623e-06
-4.09773e-06
-7.06015e-06
-1.82603e-05
-4.43208e-05
-0.000150174
-0.000291724
-0.00746866
-0.004858
-0.00146296
-3.65572e-05
0.000102716
-2.91359e-05
-8.60623e-05
-0.000107313
-9.69951e-05
-8.56279e-05
-7.35488e-05
-6.36422e-05
-5.38043e-05
-4.59165e-05
-3.99586e-05
-3.47932e-05
-2.9767e-05
-2.52998e-05
-2.13026e-05
-1.79098e-05
-1.49506e-05
-1.23864e-05
-1.02059e-05
-8.26543e-06
-6.70132e-06
-5.27941e-06
-4.17857e-06
-3.21236e-06
-2.47149e-06
-1.8702e-06
-1.41265e-06
-1.05902e-06
-8.29706e-07
-6.21911e-07
-4.77153e-07
-3.35946e-07
-3.08206e-07
-2.22433e-07
-1.93939e-07
-1.44842e-07
-1.58261e-07
-1.25492e-07
-1.27075e-07
-8.65235e-08
-1.09898e-07
-8.32051e-08
-8.12537e-08
-1.74778e-08
-1.8323e-08
1.6705e-08
1.5083e-08
7.19892e-08
6.66813e-08
1.2239e-07
9.59865e-08
7.44791e-08
1.41016e-08
8.81358e-09
-6.90485e-08
-8.5567e-08
-1.21705e-07
-8.84511e-08
-1.26448e-07
-8.85429e-08
-8.13092e-08
-4.04096e-08
-3.29996e-08
1.67325e-08
1.91096e-08
5.72085e-08
5.35366e-08
8.50346e-08
6.29477e-08
8.89919e-08
6.28813e-08
7.22045e-08
2.53709e-08
2.07679e-09
-5.47562e-08
-7.82385e-08
-1.26479e-07
-1.66932e-07
-2.26955e-07
-2.71261e-07
-3.76783e-07
-4.69996e-07
-6.38808e-07
-8.10124e-07
-1.07246e-06
-1.45505e-06
-2.04703e-06
-2.89669e-06
-4.43946e-06
-6.84595e-06
-1.23224e-05
-2.11053e-05
-5.43708e-05
-0.000131981
-0.00044736
-0.000869475
-0.0125162
-0.00806316
-0.00241489
-6.18515e-05
0.000168519
-4.94567e-05
-0.000142502
-0.000177457
-0.000160117
-0.000141748
-0.000121267
-0.000104743
-8.89036e-05
-7.60578e-05
-6.58225e-05
-5.70048e-05
-4.87553e-05
-4.14789e-05
-3.49693e-05
-2.93713e-05
-2.44941e-05
-2.0257e-05
-1.66277e-05
-1.34711e-05
-1.0868e-05
-8.61443e-06
-6.79734e-06
-5.26294e-06
-4.05519e-06
-3.08511e-06
-2.33814e-06
-1.7569e-06
-1.33507e-06
-1.01537e-06
-7.66212e-07
-5.4463e-07
-4.56199e-07
-3.42555e-07
-2.69513e-07
-2.06899e-07
-1.92558e-07
-1.58915e-07
-1.48316e-07
-1.10796e-07
-1.18594e-07
-9.99432e-08
-9.07277e-08
-3.98308e-08
-2.15192e-08
6.50117e-09
2.10803e-08
7.4271e-08
8.04781e-08
1.26438e-07
1.13077e-07
7.6084e-08
1.12463e-08
-5.47868e-09
-6.98148e-08
-9.12186e-08
-1.18287e-07
-8.99406e-08
-1.12103e-07
-8.68972e-08
-7.48203e-08
-4.37641e-08
-2.99823e-08
1.01956e-08
1.70953e-08
4.85853e-08
5.00538e-08
7.65348e-08
6.55075e-08
8.15919e-08
6.43454e-08
6.30735e-08
2.11436e-08
-1.08776e-08
-7.17671e-08
-1.08759e-07
-1.62509e-07
-2.22501e-07
-3.07694e-07
-3.90551e-07
-5.37617e-07
-7.06857e-07
-9.67311e-07
-1.27854e-06
-1.72791e-06
-2.37286e-06
-3.3549e-06
-4.77404e-06
-7.30131e-06
-1.12252e-05
-2.01304e-05
-3.44305e-05
-8.88495e-05
-0.000216363
-0.000734914
-0.00143001
-0.017668
-0.011217
-0.00333195
-8.85233e-05
0.000230571
-7.08664e-05
-0.00019704
-0.000245058
-0.000220688
-0.000195594
-0.000166934
-0.000144033
-0.000122423
-0.000104804
-9.04539e-05
-7.81333e-05
-6.67927e-05
-5.68244e-05
-4.79305e-05
-4.02173e-05
-3.3519e-05
-2.76907e-05
-2.26858e-05
-1.83782e-05
-1.47887e-05
-1.17466e-05
-9.25969e-06
-7.184e-06
-5.54191e-06
-4.21863e-06
-3.2024e-06
-2.40709e-06
-1.80495e-06
-1.37526e-06
-1.03797e-06
-7.37501e-07
-5.90979e-07
-4.50937e-07
-3.42117e-07
-2.64392e-07
-2.27417e-07
-1.88017e-07
-1.68714e-07
-1.33097e-07
-1.27286e-07
-1.12219e-07
-9.66174e-08
-5.69799e-08
-2.50321e-08
1.4182e-09
2.61237e-08
7.89924e-08
9.27785e-08
1.29033e-07
1.24098e-07
7.74641e-08
7.32843e-09
-1.92262e-08
-7.13227e-08
-9.27499e-08
-1.13277e-07
-8.7847e-08
-9.95896e-08
-8.10497e-08
-6.97129e-08
-4.55158e-08
-2.93035e-08
4.26902e-09
1.30579e-08
3.92227e-08
4.5399e-08
6.75659e-08
6.64277e-08
7.59721e-08
6.30891e-08
5.56612e-08
1.49342e-08
-2.15201e-08
-8.64428e-08
-1.36375e-07
-1.95955e-07
-2.72359e-07
-3.81908e-07
-5.02915e-07
-6.8923e-07
-9.28894e-07
-1.27938e-06
-1.72038e-06
-2.34986e-06
-3.24161e-06
-4.58884e-06
-6.53724e-06
-9.96496e-06
-1.52605e-05
-2.7259e-05
-4.65808e-05
-0.000120653
-0.000295346
-0.00100648
-0.00196189
-0.0229691
-0.0142964
-0.00419985
-0.000117137
0.000287586
-9.3618e-05
-0.000248845
-0.000309068
-0.000277679
-0.000246232
-0.000209746
-0.000180787
-0.00015374
-0.000131608
-0.000113376