/*--------------------------------*- C++ -*----------------------------------*\
| =========                 |                                                 |
| \\      /  F ield         | OpenFOAM: The Open Source CFD Toolbox           |
|  \\    /   O peration     | Version:  v1906                                 |
|   \\  /    A nd           | Web:      www.OpenFOAM.com                      |
|    \\/     M anipulation  |                                                 |
\*---------------------------------------------------------------------------*/
FoamFile
{
    version     2.0;
    format      ascii;
    class       volVectorField;
    location    "1.5";
    object      B;
}
// * * * * * * * * * * * * * * * * * * * * * * * * * * * * * * * * * * * * * //

dimensions      [1 0 -2 0 0 -1 0];


internalField   nonuniform List<vector> 
4000
(
(0.45147 20.0134 0)
(0.513359 19.9903 0)
(0.480131 19.9923 0)
(0.501401 19.9957 0)
(0.488752 19.9968 0)
(0.496832 19.9983 0)
(0.491825 19.9988 0)
(0.494945 19.9994 0)
(0.492935 19.9995 0)
(0.494131 19.9998 0)
(0.493318 19.9998 0)
(0.493774 19.9999 0)
(0.493445 19.9999 0)
(0.493619 20 0)
(0.493486 20 0)
(0.493552 20 0)
(0.493499 20 0)
(0.493525 20 0)
(0.493504 20 0)
(0.493514 20 0)
(0.493505 20 0)
(0.493509 20 0)
(0.493506 20 0)
(0.493508 20 0)
(0.493506 20 0)
(0.493507 20 0)
(0.493506 20 0)
(0.493507 20 0)
(0.493506 20 0)
(0.493506 20 0)
(0.493506 20 0)
(0.493506 20 0)
(0.493506 20 0)
(0.493506 20 0)
(0.493506 20 0)
(0.493506 20 0)
(0.493506 20 0)
(0.493506 20 0)
(0.493506 20 0)
(0.493506 20 0)
(0.493506 20 0)
(0.493506 20 0)
(0.493506 20 0)
(0.493506 20 0)
(0.493506 20 0)
(0.493506 20 0)
(0.493506 20 0)
(0.493506 20 0)
(0.493506 20 0)
(0.493506 20 0)
(0.493506 20 0)
(0.493506 20 0)
(0.493506 20 0)
(0.493506 20 0)
(0.493506 20 0)
(0.493506 20 0)
(0.493506 20 0)
(0.493506 20 0)
(0.493506 20 0)
(0.493506 20 0)
(0.493506 20 0)
(0.493506 20 0)
(0.493506 20 0)
(0.493506 20 0)
(0.493507 20 0)
(0.493507 20 0)
(0.493507 20 0)
(0.493507 20 0)
(0.493507 20 0)
(0.493507 20 0)
(0.493507 20 0)
(0.493507 20 0)
(0.493507 20 0)
(0.493507 20 0)
(0.493507 20 0)
(0.493507 20 0)
(0.493507 20 0)
(0.493507 20 0)
(0.493507 20 0)
(0.493506 20 0)
(0.493506 20 0)
(0.493506 20 0)
(0.493506 20 0)
(0.493507 20 0)
(0.493506 20 0)
(0.493507 20 0)
(0.493506 20 0)
(0.493507 20 0)
(0.493506 20 0)
(0.493507 20 0)
(0.493506 20 0)
(0.493506 20 0)
(0.493506 20 0)
(0.493506 20 0)
(0.493505 20 0)
(0.493506 20 0)
(0.49351 20 0)
(0.493515 20 0)
(0.4936 20 0)
(0.493274 20.0002 0)
(0.709999 19.9902 0)
(0.808807 19.9702 0)
(0.763523 19.9784 0)
(0.797414 19.988 0)
(0.778905 19.9919 0)
(0.791923 19.996 0)
(0.784609 19.9975 0)
(0.78966 19.9992 0)
(0.786728 19.9998 0)
(0.788669 20.0005 0)
(0.787483 20.0007 0)
(0.788225 20.0009 0)
(0.787744 20.001 0)
(0.788027 20.0011 0)
(0.787832 20.0011 0)
(0.787941 20.0012 0)
(0.787862 20.0012 0)
(0.787904 20.0012 0)
(0.787873 20.0012 0)
(0.787889 20.0012 0)
(0.787876 20.0012 0)
(0.787883 20.0012 0)
(0.787878 20.0012 0)
(0.78788 20.0012 0)
(0.787878 20.0012 0)
(0.787879 20.0012 0)
(0.787879 20.0012 0)
(0.787879 20.0012 0)
(0.787879 20.0012 0)
(0.787879 20.0012 0)
(0.787879 20.0012 0)
(0.787879 20.0012 0)
(0.787879 20.0012 0)
(0.787879 20.0012 0)
(0.787879 20.0012 0)
(0.787879 20.0012 0)
(0.787879 20.0012 0)
(0.787879 20.0012 0)
(0.787879 20.0012 0)
(0.787879 20.0012 0)
(0.787879 20.0012 0)
(0.787879 20.0012 0)
(0.787879 20.0012 0)
(0.787879 20.0012 0)
(0.787879 20.0012 0)
(0.787879 20.0012 0)
(0.787879 20.0012 0)
(0.787879 20.0012 0)
(0.787879 20.0012 0)
(0.787879 20.0012 0)
(0.787879 20.0012 0)
(0.787879 20.0012 0)
(0.787879 20.0012 0)
(0.787879 20.0012 0)
(0.787879 20.0012 0)
(0.787879 20.0012 0)
(0.787879 20.0012 0)
(0.787879 20.0012 0)
(0.787879 20.0012 0)
(0.787879 20.0012 0)
(0.787879 20.0012 0)
(0.787879 20.0012 0)
(0.787879 20.0012 0)
(0.787879 20.0012 0)
(0.787879 20.0012 0)
(0.787879 20.0012 0)
(0.787879 20.0012 0)
(0.787879 20.0012 0)
(0.787879 20.0012 0)
(0.787879 20.0012 0)
(0.787879 20.0012 0)
(0.787879 20.0012 0)
(0.787879 20.0012 0)
(0.787879 20.0012 0)
(0.787879 20.0012 0)
(0.787879 20.0012 0)
(0.787879 20.0012 0)
(0.787879 20.0012 0)
(0.787879 20.0012 0)
(0.787879 20.0012 0)
(0.787879 20.0012 0)
(0.787879 20.0012 0)
(0.787879 20.0012 0)
(0.787879 20.0012 0)
(0.787879 20.0012 0)
(0.787879 20.0012 0)
(0.787879 20.0012 0)
(0.787879 20.0012 0)
(0.787879 20.0012 0)
(0.787879 20.0012 0)
(0.787879 20.0012 0)
(0.787879 20.0012 0)
(0.787879 20.0012 0)
(0.78788 20.0012 0)
(0.787881 20.0012 0)
(0.787889 20.0012 0)
(0.787908 20.0012 0)
(0.787956 20.0011 0)
(0.788159 20.0013 0)
(0.787897 20.0018 0)
(0.759125 19.9427 0)
(0.863537 19.947 0)
(0.821373 19.9636 0)
(0.858461 19.9787 0)
(0.84 19.9858 0)
(0.85441 19.9923 0)
(0.847129 19.9951 0)
(0.85275 19.9977 0)
(0.849836 19.9988 0)
(0.852005 19.9999 0)
(0.850827 20.0003 0)
(0.851658 20.0007 0)
(0.85118 20.0009 0)
(0.851497 20.001 0)
(0.851303 20.0011 0)
(0.851425 20.0011 0)
(0.851347 20.0011 0)
(0.851393 20.0011 0)
(0.851362 20.0011 0)
(0.85138 20.0011 0)
(0.851367 20.0011 0)
(0.851374 20.0012 0)
(0.85137 20.0012 0)
(0.851372 20.0012 0)
(0.85137 20.0012 0)
(0.851371 20.0012 0)
(0.851371 20.0012 0)
(0.851371 20.0012 0)
(0.851371 20.0012 0)
(0.851371 20.0012 0)
(0.851371 20.0012 0)
(0.851371 20.0012 0)
(0.851371 20.0012 0)
(0.851371 20.0012 0)
(0.851371 20.0012 0)
(0.851371 20.0012 0)
(0.851371 20.0012 0)
(0.851371 20.0012 0)
(0.851371 20.0012 0)
(0.851371 20.0012 0)
(0.851371 20.0012 0)
(0.851371 20.0012 0)
(0.851371 20.0012 0)
(0.851371 20.0012 0)
(0.851371 20.0012 0)
(0.851371 20.0012 0)
(0.851371 20.0012 0)
(0.851371 20.0012 0)
(0.851371 20.0012 0)
(0.851371 20.0012 0)
(0.851371 20.0012 0)
(0.851371 20.0012 0)
(0.851371 20.0012 0)
(0.851371 20.0012 0)
(0.851371 20.0012 0)
(0.851371 20.0012 0)
(0.851371 20.0012 0)
(0.851371 20.0012 0)
(0.851371 20.0012 0)
(0.851371 20.0012 0)
(0.851371 20.0012 0)
(0.851371 20.0012 0)
(0.851371 20.0012 0)
(0.851371 20.0012 0)
(0.851371 20.0012 0)
(0.851371 20.0012 0)
(0.851371 20.0012 0)
(0.851371 20.0012 0)
(0.851371 20.0012 0)
(0.851371 20.0012 0)
(0.851371 20.0012 0)
(0.851371 20.0012 0)
(0.851371 20.0012 0)
(0.851371 20.0012 0)
(0.851371 20.0012 0)
(0.851371 20.0012 0)
(0.851371 20.0012 0)
(0.851371 20.0012 0)
(0.851371 20.0012 0)
(0.851371 20.0012 0)
(0.851371 20.0012 0)
(0.851371 20.0012 0)
(0.851371 20.0012 0)
(0.851371 20.0012 0)
(0.851371 20.0012 0)
(0.851371 20.0012 0)
(0.851371 20.0012 0)
(0.851371 20.0012 0)
(0.851371 20.0012 0)
(0.851371 20.0012 0)
(0.851371 20.0012 0)
(0.851372 20.0011 0)
(0.851372 20.0011 0)
(0.851375 20.0011 0)
(0.851379 20.0011 0)
(0.851395 20.0011 0)
(0.85143 20.0011 0)
(0.851534 20.001 0)
(0.851861 20.0013 0)
(0.852289 20.002 0)
(0.740552 19.8931 0)
(0.840102 19.9228 0)
(0.804413 19.9487 0)
(0.841641 19.9689 0)
(0.824908 19.9796 0)
(0.83955 19.9882 0)
(0.832964 19.9924 0)
(0.838708 19.9959 0)
(0.836079 19.9976 0)
(0.838304 19.999 0)
(0.837242 19.9996 0)
(0.838097 20.0002 0)
(0.837666 20.0004 0)
(0.837993 20.0006 0)
(0.837818 20.0007 0)
(0.837943 20.0007 0)
(0.837872 20.0008 0)
(0.83792 20.0008 0)
(0.837891 20.0008 0)
(0.83791 20.0008 0)
(0.837899 20.0008 0)
(0.837906 20.0008 0)
(0.837901 20.0008 0)
(0.837904 20.0008 0)
(0.837902 20.0008 0)
(0.837903 20.0008 0)
(0.837903 20.0008 0)
(0.837903 20.0008 0)
(0.837903 20.0008 0)
(0.837903 20.0008 0)
(0.837903 20.0008 0)
(0.837903 20.0008 0)
(0.837903 20.0008 0)
(0.837903 20.0008 0)
(0.837903 20.0008 0)
(0.837903 20.0008 0)
(0.837903 20.0008 0)
(0.837903 20.0008 0)
(0.837903 20.0008 0)
(0.837903 20.0008 0)
(0.837903 20.0008 0)
(0.837903 20.0008 0)
(0.837903 20.0008 0)
(0.837903 20.0008 0)
(0.837903 20.0008 0)
(0.837903 20.0008 0)
(0.837903 20.0008 0)
(0.837903 20.0008 0)
(0.837903 20.0008 0)
(0.837903 20.0008 0)
(0.837903 20.0008 0)
(0.837903 20.0008 0)
(0.837903 20.0008 0)
(0.837903 20.0008 0)
(0.837903 20.0008 0)
(0.837903 20.0008 0)
(0.837903 20.0008 0)
(0.837903 20.0008 0)
(0.837903 20.0008 0)
(0.837903 20.0008 0)
(0.837903 20.0008 0)
(0.837903 20.0008 0)
(0.837903 20.0008 0)
(0.837903 20.0008 0)
(0.837903 20.0008 0)
(0.837903 20.0008 0)
(0.837903 20.0008 0)
(0.837903 20.0008 0)
(0.837903 20.0008 0)
(0.837903 20.0008 0)
(0.837903 20.0008 0)
(0.837903 20.0008 0)
(0.837903 20.0008 0)
(0.837903 20.0008 0)
(0.837903 20.0008 0)
(0.837903 20.0008 0)
(0.837903 20.0008 0)
(0.837903 20.0008 0)
(0.837903 20.0008 0)
(0.837903 20.0008 0)
(0.837903 20.0008 0)
(0.837903 20.0008 0)
(0.837903 20.0008 0)
(0.837903 20.0008 0)
(0.837903 20.0008 0)
(0.837903 20.0008 0)
(0.837903 20.0008 0)
(0.837903 20.0008 0)
(0.837903 20.0008 0)
(0.837903 20.0008 0)
(0.837903 20.0008 0)
(0.837904 20.0008 0)
(0.837905 20.0008 0)
(0.83791 20.0008 0)
(0.837917 20.0008 0)
(0.837941 20.0008 0)
(0.837992 20.0007 0)
(0.838158 20.0006 0)
(0.838618 20.0009 0)
(0.840013 20.0017 0)
(0.70059 19.8474 0)
(0.792151 19.8989 0)
(0.76297 19.9343 0)
(0.799264 19.9594 0)
(0.78462 19.9736 0)
(0.799074 19.9842 0)
(0.793323 19.99 0)
(0.799024 19.9943 0)
(0.796735 19.9966 0)
(0.798952 19.9983 0)
(0.798028 19.9992 0)
(0.798882 19.9998 0)
(0.798506 20.0001 0)
(0.798835 20.0004 0)
(0.798681 20.0005 0)
(0.798807 20.0006 0)
(0.798745 20.0006 0)
(0.798793 20.0007 0)
(0.798768 20.0007 0)
(0.798787 20.0007 0)
(0.798776 20.0007 0)
(0.798784 20.0007 0)
(0.79878 20.0007 0)
(0.798782 20.0007 0)
(0.798781 20.0007 0)
(0.798782 20.0007 0)
(0.798781 20.0007 0)
(0.798782 20.0007 0)
(0.798781 20.0007 0)
(0.798781 20.0007 0)
(0.798781 20.0007 0)
(0.798781 20.0007 0)
(0.798781 20.0007 0)
(0.798781 20.0007 0)
(0.798781 20.0007 0)
(0.798781 20.0007 0)
(0.798781 20.0007 0)
(0.798781 20.0007 0)
(0.798781 20.0007 0)
(0.798781 20.0007 0)
(0.798781 20.0007 0)
(0.798781 20.0007 0)
(0.798781 20.0007 0)
(0.798781 20.0007 0)
(0.798781 20.0007 0)
(0.798781 20.0007 0)
(0.798781 20.0007 0)
(0.798781 20.0007 0)
(0.798781 20.0007 0)
(0.798781 20.0007 0)
(0.798781 20.0007 0)
(0.798781 20.0007 0)
(0.798781 20.0007 0)
(0.798781 20.0007 0)
(0.798781 20.0007 0)
(0.798781 20.0007 0)
(0.798781 20.0007 0)
(0.798781 20.0007 0)
(0.798781 20.0007 0)
(0.798781 20.0007 0)
(0.798781 20.0007 0)
(0.798781 20.0007 0)
(0.798781 20.0007 0)
(0.798781 20.0007 0)
(0.798781 20.0007 0)
(0.798781 20.0007 0)
(0.798781 20.0007 0)
(0.798781 20.0007 0)
(0.798781 20.0007 0)
(0.798781 20.0007 0)
(0.798781 20.0007 0)
(0.798781 20.0007 0)
(0.798781 20.0007 0)
(0.798781 20.0007 0)
(0.798781 20.0007 0)
(0.798781 20.0007 0)
(0.798781 20.0007 0)
(0.798781 20.0007 0)
(0.798781 20.0007 0)
(0.798781 20.0007 0)
(0.798781 20.0007 0)
(0.798781 20.0007 0)
(0.798781 20.0007 0)
(0.798781 20.0007 0)
(0.798781 20.0007 0)
(0.798781 20.0007 0)
(0.798781 20.0007 0)
(0.798781 20.0007 0)
(0.798781 20.0007 0)
(0.798782 20.0007 0)
(0.798782 20.0007 0)
(0.798783 20.0007 0)
(0.798785 20.0007 0)
(0.798791 20.0007 0)
(0.798801 20.0007 0)
(0.798832 20.0006 0)
(0.798898 20.0006 0)
(0.799128 20.0004 0)
(0.799719 20.0007 0)
(0.802072 20.0015 0)
(0.654369 19.806 0)
(0.737325 19.8757 0)
(0.713838 19.9203 0)
(0.748741 19.9501 0)
(0.736138 19.968 0)
(0.750215 19.9805 0)
(0.745275 19.9877 0)
(0.750855 19.9928 0)
(0.748897 19.9956 0)
(0.751074 19.9977 0)
(0.750284 19.9988 0)
(0.751126 19.9996 0)
(0.750804 20 0)
(0.751128 20.0003 0)
(0.750997 20.0004 0)
(0.751122 20.0005 0)
(0.751068 20.0006 0)
(0.751116 20.0006 0)
(0.751094 20.0006 0)
(0.751112 20.0007 0)
(0.751103 20.0007 0)
(0.75111 20.0007 0)
(0.751107 20.0007 0)
(0.75111 20.0007 0)
(0.751108 20.0007 0)
(0.751109 20.0007 0)
(0.751109 20.0007 0)
(0.751109 20.0007 0)
(0.751109 20.0007 0)
(0.751109 20.0007 0)
(0.751109 20.0007 0)
(0.751109 20.0007 0)
(0.751109 20.0007 0)
(0.751109 20.0007 0)
(0.751109 20.0007 0)
(0.751109 20.0007 0)
(0.751109 20.0007 0)
(0.751109 20.0007 0)
(0.751109 20.0007 0)
(0.751109 20.0007 0)
(0.751109 20.0007 0)
(0.751109 20.0007 0)
(0.751109 20.0007 0)
(0.751109 20.0007 0)
(0.751109 20.0007 0)
(0.751109 20.0007 0)
(0.751109 20.0007 0)
(0.751109 20.0007 0)
(0.751109 20.0007 0)
(0.751109 20.0007 0)
(0.751109 20.0007 0)
(0.751109 20.0007 0)
(0.751109 20.0007 0)
(0.751109 20.0007 0)
(0.751109 20.0007 0)
(0.751109 20.0007 0)
(0.751109 20.0007 0)
(0.751109 20.0007 0)
(0.751109 20.0007 0)
(0.751109 20.0007 0)
(0.751109 20.0007 0)
(0.751109 20.0007 0)
(0.751109 20.0007 0)
(0.751109 20.0007 0)
(0.751109 20.0007 0)
(0.751109 20.0007 0)
(0.751109 20.0007 0)
(0.751109 20.0007 0)
(0.751109 20.0007 0)
(0.751109 20.0007 0)
(0.751109 20.0007 0)
(0.751109 20.0007 0)
(0.751109 20.0007 0)
(0.751109 20.0007 0)
(0.751109 20.0007 0)
(0.751109 20.0007 0)
(0.751109 20.0007 0)
(0.751109 20.0007 0)
(0.751109 20.0007 0)
(0.751109 20.0007 0)
(0.751109 20.0007 0)
(0.751109 20.0007 0)
(0.751109 20.0007 0)
(0.751109 20.0007 0)
(0.751109 20.0007 0)
(0.751109 20.0007 0)
(0.751109 20.0007 0)
(0.751109 20.0007 0)
(0.751109 20.0007 0)
(0.751109 20.0007 0)
(0.75111 20.0007 0)
(0.751111 20.0007 0)
(0.751113 20.0007 0)
(0.75112 20.0006 0)
(0.751133 20.0006 0)
(0.751171 20.0006 0)
(0.75125 20.0005 0)
(0.75154 20.0003 0)
(0.752253 20.0005 0)
(0.755424 20.0011 0)
(0.606776 19.7685 0)
(0.681346 19.8532 0)
(0.662608 19.9068 0)
(0.695858 19.9411 0)
(0.685126 19.9625 0)
(0.698706 19.9768 0)
(0.69451 19.9855 0)
(0.699919 19.9913 0)
(0.698262 19.9948 0)
(0.700379 19.9971 0)
(0.699711 19.9984 0)
(0.700532 19.9993 0)
(0.70026 19.9999 0)
(0.700577 20.0002 0)
(0.700465 20.0004 0)
(0.700587 20.0005 0)
(0.700541 20.0006 0)
(0.700588 20.0006 0)
(0.70057 20.0006 0)
(0.700588 20.0006 0)
(0.70058 20.0007 0)
(0.700587 20.0007 0)
(0.700584 20.0007 0)
(0.700586 20.0007 0)
(0.700585 20.0007 0)
(0.700586 20.0007 0)
(0.700586 20.0007 0)
(0.700586 20.0007 0)
(0.700586 20.0007 0)
(0.700586 20.0007 0)
(0.700586 20.0007 0)
(0.700586 20.0007 0)
(0.700586 20.0007 0)
(0.700586 20.0007 0)
(0.700586 20.0007 0)
(0.700586 20.0007 0)
(0.700586 20.0007 0)
(0.700586 20.0007 0)
(0.700586 20.0007 0)
(0.700586 20.0007 0)
(0.700586 20.0007 0)
(0.700586 20.0007 0)
(0.700586 20.0007 0)
(0.700586 20.0007 0)
(0.700586 20.0007 0)
(0.700586 20.0007 0)
(0.700586 20.0007 0)
(0.700586 20.0007 0)
(0.700586 20.0007 0)
(0.700586 20.0007 0)
(0.700586 20.0007 0)
(0.700586 20.0007 0)
(0.700586 20.0007 0)
(0.700586 20.0007 0)
(0.700586 20.0007 0)
(0.700586 20.0007 0)
(0.700586 20.0007 0)
(0.700586 20.0007 0)
(0.700586 20.0007 0)
(0.700586 20.0007 0)
(0.700586 20.0007 0)
(0.700586 20.0007 0)
(0.700586 20.0007 0)
(0.700586 20.0007 0)
(0.700586 20.0007 0)
(0.700586 20.0007 0)
(0.700586 20.0007 0)
(0.700586 20.0007 0)
(0.700586 20.0007 0)
(0.700586 20.0007 0)
(0.700586 20.0007 0)
(0.700586 20.0007 0)
(0.700586 20.0007 0)
(0.700586 20.0007 0)
(0.700586 20.0007 0)
(0.700586 20.0007 0)
(0.700586 20.0007 0)
(0.700586 20.0007 0)
(0.700586 20.0007 0)
(0.700586 20.0007 0)
(0.700586 20.0007 0)
(0.700586 20.0007 0)
(0.700586 20.0007 0)
(0.700586 20.0007 0)
(0.700586 20.0007 0)
(0.700586 20.0007 0)
(0.700586 20.0007 0)
(0.700586 20.0007 0)
(0.700586 20.0007 0)
(0.700587 20.0007 0)
(0.700587 20.0007 0)
(0.700589 20.0007 0)
(0.700591 20.0007 0)
(0.700599 20.0006 0)
(0.700614 20.0006 0)
(0.700658 20.0006 0)
(0.700747 20.0005 0)
(0.701092 20.0002 0)
(0.70191 20.0003 0)
(0.70572 20.0007 0)
(0.559318 19.7346 0)
(0.625978 19.8319 0)
(0.611123 19.8938 0)
(0.642525 19.9324 0)
(0.633467 19.9573 0)
(0.646452 19.9732 0)
(0.642921 19.9833 0)
(0.648117 19.9898 0)
(0.646728 19.9939 0)
(0.648767 19.9965 0)
(0.648209 19.9981 0)
(0.649001 19.9991 0)
(0.648774 19.9997 0)
(0.64908 20.0001 0)
(0.648987 20.0003 0)
(0.649105 20.0005 0)
(0.649066 20.0005 0)
(0.649111 20.0006 0)
(0.649096 20.0006 0)
(0.649113 20.0006 0)
(0.649107 20.0006 0)
(0.649113 20.0007 0)
(0.649111 20.0007 0)
(0.649113 20.0007 0)
(0.649112 20.0007 0)
(0.649113 20.0007 0)
(0.649113 20.0007 0)
(0.649113 20.0007 0)
(0.649113 20.0007 0)
(0.649113 20.0007 0)
(0.649113 20.0007 0)
(0.649113 20.0007 0)
(0.649113 20.0007 0)
(0.649113 20.0007 0)
(0.649113 20.0007 0)
(0.649113 20.0007 0)
(0.649113 20.0007 0)
(0.649113 20.0007 0)
(0.649113 20.0007 0)
(0.649113 20.0007 0)
(0.649113 20.0007 0)
(0.649113 20.0007 0)
(0.649113 20.0007 0)
(0.649113 20.0007 0)
(0.649113 20.0007 0)
(0.649113 20.0007 0)
(0.649113 20.0007 0)
(0.649113 20.0007 0)
(0.649113 20.0007 0)
(0.649113 20.0007 0)
(0.649113 20.0007 0)
(0.649113 20.0007 0)
(0.649113 20.0007 0)
(0.649113 20.0007 0)
(0.649113 20.0007 0)
(0.649113 20.0007 0)
(0.649113 20.0007 0)
(0.649113 20.0007 0)
(0.649113 20.0007 0)
(0.649113 20.0007 0)
(0.649113 20.0007 0)
(0.649113 20.0007 0)
(0.649113 20.0007 0)
(0.649113 20.0007 0)
(0.649113 20.0007 0)
(0.649113 20.0007 0)
(0.649113 20.0007 0)
(0.649113 20.0007 0)
(0.649113 20.0007 0)
(0.649113 20.0007 0)
(0.649113 20.0007 0)
(0.649113 20.0007 0)
(0.649113 20.0007 0)
(0.649113 20.0007 0)
(0.649113 20.0007 0)
(0.649113 20.0007 0)
(0.649113 20.0007 0)
(0.649113 20.0007 0)
(0.649113 20.0007 0)
(0.649113 20.0007 0)
(0.649113 20.0007 0)
(0.649113 20.0007 0)
(0.649113 20.0007 0)
(0.649113 20.0007 0)
(0.649113 20.0007 0)
(0.649113 20.0007 0)
(0.649113 20.0007 0)
(0.649113 20.0007 0)
(0.649113 20.0007 0)
(0.649114 20.0007 0)
(0.649114 20.0007 0)
(0.649116 20.0007 0)
(0.649119 20.0006 0)
(0.649128 20.0006 0)
(0.649144 20.0006 0)
(0.649192 20.0005 0)
(0.64929 20.0004 0)
(0.64968 20.0001 0)
(0.650581 20 0)
(0.65485 20.0001 0)
(0.5124 19.7042 0)
(0.571679 19.8118 0)
(0.55997 19.8815 0)
(0.589362 19.9241 0)
(0.581779 19.9523 0)
(0.59408 19.9698 0)
(0.591137 19.9813 0)
(0.596079 19.9884 0)
(0.594928 19.9931 0)
(0.596871 19.9959 0)
(0.596409 19.9978 0)
(0.597166 19.9989 0)
(0.596978 19.9996 0)
(0.597271 20 0)
(0.597194 20.0003 0)
(0.597307 20.0004 0)
(0.597275 20.0005 0)
(0.597319 20.0006 0)
(0.597305 20.0006 0)
(0.597322 20.0006 0)
(0.597317 20.0006 0)
(0.597323 20.0006 0)
(0.597321 20.0007 0)
(0.597323 20.0007 0)
(0.597322 20.0007 0)
(0.597323 20.0007 0)
(0.597323 20.0007 0)
(0.597323 20.0007 0)
(0.597323 20.0007 0)
(0.597323 20.0007 0)
(0.597323 20.0007 0)
(0.597323 20.0007 0)
(0.597323 20.0007 0)
(0.597323 20.0007 0)
(0.597323 20.0007 0)
(0.597323 20.0007 0)
(0.597323 20.0007 0)
(0.597323 20.0007 0)
(0.597323 20.0007 0)
(0.597323 20.0007 0)
(0.597323 20.0007 0)
(0.597323 20.0007 0)
(0.597323 20.0007 0)
(0.597323 20.0007 0)
(0.597323 20.0007 0)
(0.597323 20.0007 0)
(0.597323 20.0007 0)
(0.597323 20.0007 0)
(0.597323 20.0007 0)
(0.597323 20.0007 0)
(0.597323 20.0007 0)
(0.597323 20.0007 0)
(0.597323 20.0007 0)
(0.597323 20.0007 0)
(0.597323 20.0007 0)
(0.597323 20.0007 0)
(0.597323 20.0007 0)
(0.597323 20.0007 0)
(0.597323 20.0007 0)
(0.597323 20.0007 0)
(0.597323 20.0007 0)
(0.597323 20.0007 0)
(0.597323 20.0007 0)
(0.597323 20.0007 0)
(0.597323 20.0007 0)
(0.597323 20.0007 0)
(0.597323 20.0007 0)
(0.597323 20.0007 0)
(0.597323 20.0007 0)
(0.597323 20.0007 0)
(0.597323 20.0007 0)
(0.597323 20.0007 0)
(0.597323 20.0007 0)
(0.597323 20.0007 0)
(0.597323 20.0007 0)
(0.597323 20.0007 0)
(0.597323 20.0007 0)
(0.597323 20.0007 0)
(0.597323 20.0007 0)
(0.597323 20.0007 0)
(0.597323 20.0007 0)
(0.597323 20.0007 0)
(0.597323 20.0007 0)
(0.597323 20.0007 0)
(0.597323 20.0007 0)
(0.597323 20.0007 0)
(0.597323 20.0007 0)
(0.597323 20.0007 0)
(0.597324 20.0007 0)
(0.597324 20.0007 0)
(0.597325 20.0007 0)
(0.597327 20.0007 0)
(0.59733 20.0006 0)
(0.597339 20.0006 0)
(0.597356 20.0006 0)
(0.597407 20.0005 0)
(0.597512 20.0004 0)
(0.597937 20 0)
(0.598896 19.9997 0)
(0.603449 19.9994 0)
(0.466074 19.677 0)
(0.518488 19.7931 0)
(0.509311 19.8699 0)
(0.536552 19.9163 0)
(0.530259 19.9476 0)
(0.541792 19.9666 0)
(0.539362 19.9794 0)
(0.544014 19.9871 0)
(0.543068 19.9923 0)
(0.544902 19.9954 0)
(0.544523 19.9975 0)
(0.545239 19.9987 0)
(0.545084 19.9995 0)
(0.545362 19.9999 0)
(0.545299 20.0002 0)
(0.545406 20.0004 0)
(0.54538 20.0005 0)
(0.545421 20.0006 0)
(0.54541 20.0006 0)
(0.545426 20.0006 0)
(0.545421 20.0006 0)
(0.545427 20.0006 0)
(0.545426 20.0006 0)
(0.545428 20.0007 0)
(0.545427 20.0007 0)
(0.545428 20.0007 0)
(0.545428 20.0007 0)
(0.545428 20.0007 0)
(0.545428 20.0007 0)
(0.545428 20.0007 0)
(0.545428 20.0007 0)
(0.545428 20.0007 0)
(0.545428 20.0007 0)
(0.545428 20.0007 0)
(0.545428 20.0007 0)
(0.545428 20.0007 0)
(0.545428 20.0007 0)
(0.545428 20.0007 0)
(0.545428 20.0007 0)
(0.545428 20.0007 0)
(0.545428 20.0007 0)
(0.545428 20.0007 0)
(0.545428 20.0007 0)
(0.545428 20.0007 0)
(0.545428 20.0007 0)
(0.545428 20.0007 0)
(0.545428 20.0007 0)
(0.545428 20.0007 0)
(0.545428 20.0007 0)
(0.545428 20.0007 0)
(0.545428 20.0007 0)
(0.545428 20.0007 0)
(0.545428 20.0007 0)
(0.545428 20.0007 0)
(0.545428 20.0007 0)
(0.545428 20.0007 0)
(0.545428 20.0007 0)
(0.545428 20.0007 0)
(0.545428 20.0007 0)
(0.545428 20.0007 0)
(0.545428 20.0007 0)
(0.545428 20.0007 0)
(0.545428 20.0007 0)
(0.545428 20.0007 0)
(0.545428 20.0007 0)
(0.545428 20.0007 0)
(0.545428 20.0007 0)
(0.545428 20.0007 0)
(0.545428 20.0007 0)
(0.545428 20.0007 0)
(0.545428 20.0007 0)
(0.545428 20.0007 0)
(0.545428 20.0007 0)
(0.545428 20.0007 0)
(0.545428 20.0007 0)
(0.545428 20.0007 0)
(0.545428 20.0007 0)
(0.545428 20.0007 0)
(0.545428 20.0007 0)
(0.545428 20.0007 0)
(0.545428 20.0007 0)
(0.545428 20.0007 0)
(0.545428 20.0007 0)
(0.545428 20.0007 0)
(0.545428 20.0007 0)
(0.545428 20.0007 0)
(0.545428 20.0007 0)
(0.545428 20.0007 0)
(0.545428 20.0007 0)
(0.545429 20.0007 0)
(0.545429 20.0007 0)
(0.545431 20.0006 0)
(0.545435 20.0006 0)
(0.545444 20.0006 0)
(0.545461 20.0006 0)
(0.545515 20.0005 0)
(0.545623 20.0003 0)
(0.546071 19.9999 0)
(0.547062 19.9993 0)
(0.55174 19.9987 0)
(0.42029 19.6528 0)
(0.466314 19.7759 0)
(0.459168 19.8591 0)
(0.484134 19.909 0)
(0.478958 19.9431 0)
(0.489646 19.9635 0)
(0.48766 19.9775 0)
(0.491986 19.9859 0)
(0.491218 19.9915 0)
(0.492926 19.9949 0)
(0.49262 19.9972 0)
(0.493288 19.9985 0)
(0.493163 19.9993 0)
(0.493423 19.9998 0)
(0.493371 20.0002 0)
(0.493471 20.0004 0)
(0.49345 20.0005 0)
(0.493489 20.0005 0)
(0.49348 20.0006 0)
(0.493495 20.0006 0)
(0.493491 20.0006 0)
(0.493497 20.0006 0)
(0.493495 20.0006 0)
(0.493497 20.0006 0)
(0.493497 20.0007 0)
(0.493498 20.0007 0)
(0.493497 20.0007 0)
(0.493498 20.0007 0)
(0.493497 20.0007 0)
(0.493498 20.0007 0)
(0.493498 20.0007 0)
(0.493498 20.0007 0)
(0.493498 20.0007 0)
(0.493498 20.0007 0)
(0.493498 20.0007 0)
(0.493498 20.0007 0)
(0.493498 20.0007 0)
(0.493498 20.0007 0)
(0.493498 20.0007 0)
(0.493498 20.0007 0)
(0.493498 20.0007 0)
(0.493498 20.0007 0)
(0.493498 20.0007 0)
(0.493498 20.0007 0)
(0.493498 20.0007 0)
(0.493498 20.0007 0)
(0.493498 20.0007 0)
(0.493498 20.0007 0)
(0.493498 20.0007 0)
(0.493498 20.0007 0)
(0.493498 20.0007 0)
(0.493498 20.0007 0)
(0.493498 20.0007 0)
(0.493498 20.0007 0)
(0.493498 20.0007 0)
(0.493498 20.0007 0)
(0.493498 20.0007 0)
(0.493498 20.0007 0)
(0.493498 20.0007 0)
(0.493498 20.0007 0)
(0.493498 20.0007 0)
(0.493498 20.0007 0)
(0.493498 20.0007 0)
(0.493498 20.0007 0)
(0.493498 20.0007 0)
(0.493498 20.0007 0)
(0.493498 20.0007 0)
(0.493498 20.0007 0)
(0.493498 20.0007 0)
(0.493498 20.0007 0)
(0.493498 20.0007 0)
(0.493498 20.0007 0)
(0.493498 20.0007 0)
(0.493498 20.0007 0)
(0.493498 20.0007 0)
(0.493498 20.0007 0)
(0.493498 20.0007 0)
(0.493498 20.0007 0)
(0.493498 20.0007 0)
(0.493498 20.0007 0)
(0.493498 20.0007 0)
(0.493498 20.0007 0)
(0.493498 20.0007 0)
(0.493498 20.0007 0)
(0.493498 20.0007 0)
(0.493498 20.0007 0)
(0.493498 20.0007 0)
(0.493498 20.0007 0)
(0.493498 20.0007 0)
(0.493498 20.0007 0)
(0.493499 20.0006 0)
(0.493501 20.0006 0)
(0.493504 20.0006 0)
(0.493514 20.0006 0)
(0.493531 20.0006 0)
(0.493585 20.0005 0)
(0.493694 20.0003 0)
(0.494151 19.9998 0)
(0.495147 19.999 0)
(0.499806 19.998 0)
(0.374973 19.6315 0)
(0.415036 19.7603 0)
(0.409512 19.8493 0)
(0.432097 19.9023 0)
(0.427883 19.9391 0)
(0.437651 19.9607 0)
(0.436047 19.9759 0)
(0.440013 19.9847 0)
(0.439398 19.9909 0)
(0.440967 19.9944 0)
(0.440722 19.9969 0)
(0.441336 19.9983 0)
(0.441236 19.9992 0)
(0.441475 19.9998 0)
(0.441434 20.0001 0)
(0.441527 20.0003 0)
(0.44151 20.0005 0)
(0.441546 20.0005 0)
(0.441538 20.0006 0)
(0.441552 20.0006 0)
(0.441549 20.0006 0)
(0.441554 20.0006 0)
(0.441553 20.0006 0)
(0.441555 20.0006 0)
(0.441555 20.0006 0)
(0.441555 20.0007 0)
(0.441555 20.0007 0)
(0.441555 20.0007 0)
(0.441555 20.0007 0)
(0.441555 20.0007 0)
(0.441555 20.0007 0)
(0.441555 20.0007 0)
(0.441555 20.0007 0)
(0.441555 20.0007 0)
(0.441555 20.0007 0)
(0.441555 20.0007 0)
(0.441555 20.0007 0)
(0.441555 20.0007 0)
(0.441555 20.0007 0)
(0.441555 20.0007 0)
(0.441555 20.0007 0)
(0.441555 20.0007 0)
(0.441555 20.0007 0)
(0.441555 20.0007 0)
(0.441555 20.0007 0)
(0.441555 20.0007 0)
(0.441555 20.0007 0)
(0.441555 20.0007 0)
(0.441555 20.0007 0)
(0.441555 20.0007 0)
(0.441555 20.0007 0)
(0.441555 20.0007 0)
(0.441555 20.0007 0)
(0.441555 20.0007 0)
(0.441555 20.0007 0)
(0.441555 20.0007 0)
(0.441555 20.0007 0)
(0.441555 20.0007 0)
(0.441555 20.0007 0)
(0.441555 20.0007 0)
(0.441555 20.0007 0)
(0.441555 20.0007 0)
(0.441555 20.0007 0)
(0.441555 20.0007 0)
(0.441555 20.0007 0)
(0.441555 20.0007 0)
(0.441555 20.0007 0)
(0.441555 20.0007 0)
(0.441555 20.0007 0)
(0.441555 20.0007 0)
(0.441555 20.0007 0)
(0.441555 20.0007 0)
(0.441555 20.0007 0)
(0.441555 20.0007 0)
(0.441555 20.0007 0)
(0.441555 20.0007 0)
(0.441555 20.0007 0)
(0.441555 20.0007 0)
(0.441555 20.0007 0)
(0.441555 20.0007 0)
(0.441555 20.0007 0)
(0.441555 20.0007 0)
(0.441555 20.0007 0)
(0.441555 20.0007 0)
(0.441555 20.0007 0)
(0.441555 20.0007 0)
(0.441555 20.0007 0)
(0.441556 20.0007 0)
(0.441556 20.0007 0)
(0.441556 20.0007 0)
(0.441557 20.0006 0)
(0.441559 20.0006 0)
(0.441562 20.0006 0)
(0.441571 20.0006 0)
(0.441588 20.0006 0)
(0.441641 20.0005 0)
(0.441748 20.0002 0)
(0.442202 19.9997 0)
(0.443176 19.9987 0)
(0.447685 19.9973 0)
(0.33005 19.6129 0)
(0.364531 19.7464 0)
(0.360297 19.8403 0)
(0.380411 19.8962 0)
(0.377019 19.9354 0)
(0.385801 19.9582 0)
(0.384522 19.9743 0)
(0.388098 19.9837 0)
(0.387612 19.9902 0)
(0.389028 19.994 0)
(0.388835 19.9966 0)
(0.38939 19.9981 0)
(0.389312 19.9991 0)
(0.389529 19.9997 0)
(0.389496 20.0001 0)
(0.38958 20.0003 0)
(0.389566 20.0004 0)
(0.389599 20.0005 0)
(0.389593 20.0006 0)
(0.389606 20.0006 0)
(0.389603 20.0006 0)
(0.389608 20.0006 0)
(0.389607 20.0006 0)
(0.389609 20.0006 0)
(0.389609 20.0006 0)
(0.389609 20.0006 0)
(0.389609 20.0007 0)
(0.389609 20.0007 0)
(0.389609 20.0007 0)
(0.389609 20.0007 0)
(0.389609 20.0007 0)
(0.389609 20.0007 0)
(0.389609 20.0007 0)
(0.389609 20.0007 0)
(0.389609 20.0007 0)
(0.389609 20.0007 0)
(0.389609 20.0007 0)
(0.389609 20.0007 0)
(0.389609 20.0007 0)
(0.389609 20.0007 0)
(0.389609 20.0007 0)
(0.389609 20.0007 0)
(0.389609 20.0007 0)
(0.389609 20.0007 0)
(0.389609 20.0007 0)
(0.389609 20.0007 0)
(0.389609 20.0007 0)
(0.389609 20.0007 0)
(0.389609 20.0007 0)
(0.389609 20.0007 0)
(0.389609 20.0007 0)
(0.389609 20.0007 0)
(0.389609 20.0007 0)
(0.389609 20.0007 0)
(0.389609 20.0007 0)
(0.389609 20.0007 0)
(0.389609 20.0007 0)
(0.389609 20.0007 0)
(0.389609 20.0007 0)
(0.389609 20.0007 0)
(0.389609 20.0007 0)
(0.389609 20.0007 0)
(0.389609 20.0007 0)
(0.389609 20.0007 0)
(0.389609 20.0007 0)
(0.389609 20.0007 0)
(0.389609 20.0007 0)
(0.389609 20.0007 0)
(0.389609 20.0007 0)
(0.389609 20.0007 0)
(0.389609 20.0007 0)
(0.389609 20.0007 0)
(0.389609 20.0007 0)
(0.389609 20.0007 0)
(0.389609 20.0007 0)
(0.389609 20.0007 0)
(0.389609 20.0007 0)
(0.389609 20.0007 0)
(0.389609 20.0007 0)
(0.389609 20.0007 0)
(0.389609 20.0007 0)
(0.389609 20.0007 0)
(0.389609 20.0007 0)
(0.389609 20.0007 0)
(0.389609 20.0007 0)
(0.389609 20.0007 0)
(0.389609 20.0007 0)
(0.38961 20.0007 0)
(0.38961 20.0007 0)
(0.38961 20.0006 0)
(0.389611 20.0006 0)
(0.389612 20.0006 0)
(0.389616 20.0006 0)
(0.389624 20.0006 0)
(0.38964 20.0006 0)
(0.389691 20.0004 0)
(0.389793 20.0002 0)
(0.39023 19.9996 0)
(0.391157 19.9983 0)
(0.395401 19.9966 0)
(0.285452 19.5968 0)
(0.314683 19.7341 0)
(0.311473 19.8324 0)
(0.329041 19.8907 0)
(0.326347 19.9321 0)
(0.334084 19.9559 0)
(0.333079 19.973 0)
(0.336237 19.9827 0)
(0.335858 19.9897 0)
(0.337111 19.9936 0)
(0.336961 19.9964 0)
(0.337453 19.9979 0)
(0.337392 19.999 0)
(0.337584 19.9996 0)
(0.337559 20 0)
(0.337633 20.0003 0)
(0.337623 20.0004 0)
(0.337652 20.0005 0)
(0.337647 20.0006 0)
(0.337658 20.0006 0)
(0.337656 20.0006 0)
(0.337661 20.0006 0)
(0.33766 20.0006 0)
(0.337662 20.0006 0)
(0.337661 20.0006 0)
(0.337662 20.0006 0)
(0.337662 20.0006 0)
(0.337662 20.0006 0)
(0.337662 20.0006 0)
(0.337662 20.0006 0)
(0.337662 20.0007 0)
(0.337662 20.0007 0)
(0.337662 20.0007 0)
(0.337662 20.0007 0)
(0.337662 20.0007 0)
(0.337662 20.0007 0)
(0.337662 20.0007 0)
(0.337662 20.0007 0)
(0.337662 20.0007 0)
(0.337662 20.0007 0)
(0.337662 20.0007 0)
(0.337662 20.0007 0)
(0.337662 20.0007 0)
(0.337662 20.0007 0)
(0.337662 20.0007 0)
(0.337662 20.0007 0)
(0.337662 20.0007 0)
(0.337662 20.0007 0)
(0.337662 20.0007 0)
(0.337662 20.0007 0)
(0.337662 20.0007 0)
(0.337662 20.0007 0)
(0.337662 20.0007 0)
(0.337662 20.0007 0)
(0.337662 20.0007 0)
(0.337662 20.0007 0)
(0.337662 20.0007 0)
(0.337662 20.0007 0)
(0.337662 20.0007 0)
(0.337662 20.0007 0)
(0.337662 20.0007 0)
(0.337662 20.0007 0)
(0.337662 20.0007 0)
(0.337662 20.0007 0)
(0.337662 20.0007 0)
(0.337662 20.0007 0)
(0.337662 20.0007 0)
(0.337662 20.0007 0)
(0.337662 20.0007 0)
(0.337662 20.0007 0)
(0.337662 20.0007 0)
(0.337662 20.0007 0)
(0.337662 20.0007 0)
(0.337662 20.0007 0)
(0.337662 20.0007 0)
(0.337662 20.0007 0)
(0.337662 20.0007 0)
(0.337662 20.0007 0)
(0.337662 20.0007 0)
(0.337662 20.0007 0)
(0.337662 20.0007 0)
(0.337662 20.0007 0)
(0.337662 20.0007 0)
(0.337662 20.0007 0)
(0.337662 20.0007 0)
(0.337662 20.0007 0)
(0.337662 20.0006 0)
(0.337662 20.0006 0)
(0.337662 20.0006 0)
(0.337663 20.0006 0)
(0.337663 20.0006 0)
(0.337665 20.0006 0)
(0.337668 20.0006 0)
(0.337676 20.0006 0)
(0.33769 20.0005 0)
(0.337737 20.0004 0)
(0.337832 20.0001 0)
(0.33824 19.9996 0)
(0.339096 19.998 0)
(0.342974 19.996 0)
(0.241122 19.5832 0)
(0.265387 19.7235 0)
(0.262987 19.8256 0)
(0.277947 19.886 0)
(0.275846 19.9292 0)
(0.282484 19.9539 0)
(0.281709 19.9718 0)
(0.284425 19.9819 0)
(0.284135 19.9892 0)
(0.285213 19.9933 0)
(0.285099 19.9962 0)
(0.285523 19.9978 0)
(0.285477 19.9989 0)