/*--------------------------------*- C++ -*----------------------------------*\
| =========                 |                                                 |
| \\      /  F ield         | OpenFOAM: The Open Source CFD Toolbox           |
|  \\    /   O peration     | Version:  v1906                                 |
|   \\  /    A nd           | Web:      www.OpenFOAM.com                      |
|    \\/     M anipulation  |                                                 |
\*---------------------------------------------------------------------------*/
FoamFile
{
    version     2.0;
    format      ascii;
    class       volVectorField;
    location    "1.5";
    object      B;
}
// * * * * * * * * * * * * * * * * * * * * * * * * * * * * * * * * * * * * * //

dimensions      [1 0 -2 0 0 -1 0];


internalField   nonuniform List<vector> 
4000
(
(0.473699 20.0304 0)
(0.49977 19.9951 0)
(0.486464 19.9891 0)
(0.492103 19.9897 0)
(0.49181 19.9913 0)
(0.493069 19.9931 0)
(0.493115 19.9946 0)
(0.493371 19.9957 0)
(0.493417 19.9966 0)
(0.493497 19.9973 0)
(0.493533 19.9979 0)
(0.493567 19.9983 0)
(0.493587 19.9987 0)
(0.4936 19.999 0)
(0.493606 19.9992 0)
(0.493608 19.9994 0)
(0.493605 19.9995 0)
(0.4936 19.9996 0)
(0.493592 19.9997 0)
(0.493584 19.9998 0)
(0.493576 19.9998 0)
(0.493567 19.9999 0)
(0.493559 19.9999 0)
(0.493551 19.9999 0)
(0.493544 19.9999 0)
(0.493538 20 0)
(0.493532 20 0)
(0.493528 20 0)
(0.493524 20 0)
(0.49352 20 0)
(0.493518 20 0)
(0.493515 20 0)
(0.493514 20 0)
(0.493512 20 0)
(0.493511 20 0)
(0.49351 20 0)
(0.493509 20 0)
(0.493509 20 0)
(0.493508 20 0)
(0.493508 20 0)
(0.493508 20 0)
(0.493507 20 0)
(0.493507 20 0)
(0.493507 20 0)
(0.493507 20 0)
(0.493507 20 0)
(0.493507 20 0)
(0.493507 20 0)
(0.493507 20 0)
(0.493507 20 0)
(0.493507 20 0)
(0.493507 20 0)
(0.493507 20 0)
(0.493507 20 0)
(0.493507 20 0)
(0.493507 20 0)
(0.493507 20 0)
(0.493507 20 0)
(0.493507 20 0)
(0.493507 20 0)
(0.493507 20 0)
(0.493507 20 0)
(0.493507 20 0)
(0.493507 20 0)
(0.493507 20 0)
(0.493507 20 0)
(0.493507 20 0)
(0.493507 20 0)
(0.493507 20 0)
(0.493507 20 0)
(0.493507 20 0)
(0.493507 20 0)
(0.493507 20 0)
(0.493507 20 0)
(0.493507 20 0)
(0.493507 20 0)
(0.493507 20 0)
(0.493507 20 0)
(0.493507 20 0)
(0.493507 20 0)
(0.493507 20 0)
(0.493507 20 0)
(0.493507 20 0)
(0.493507 20 0)
(0.493507 20 0)
(0.493507 20 0)
(0.493506 20 0)
(0.493506 20 0)
(0.493507 20 0)
(0.493507 20 0)
(0.493507 20 0)
(0.493509 20 0)
(0.493511 20 0)
(0.493517 20 0)
(0.493529 20 0)
(0.493549 19.9999 0)
(0.493591 20 0)
(0.493596 20.0001 0)
(0.493552 20.0004 0)
(0.49279 20.0007 0)
(0.720737 20.0007 0)
(0.770223 19.9736 0)
(0.768838 19.9673 0)
(0.779631 19.9701 0)
(0.780854 19.9751 0)
(0.783523 19.9805 0)
(0.784342 19.9848 0)
(0.785288 19.9883 0)
(0.785833 19.991 0)
(0.786331 19.9931 0)
(0.786692 19.9948 0)
(0.786992 19.9962 0)
(0.787221 19.9972 0)
(0.787402 19.9981 0)
(0.78754 19.9988 0)
(0.787645 19.9993 0)
(0.787723 19.9997 0)
(0.787781 20 0)
(0.787822 20.0003 0)
(0.787851 20.0005 0)
(0.78787 20.0007 0)
(0.787882 20.0008 0)
(0.78789 20.0009 0)
(0.787894 20.001 0)
(0.787895 20.001 0)
(0.787895 20.0011 0)
(0.787895 20.0011 0)
(0.787893 20.0011 0)
(0.787891 20.0011 0)
(0.78789 20.0011 0)
(0.787888 20.0012 0)
(0.787887 20.0012 0)
(0.787885 20.0012 0)
(0.787884 20.0012 0)
(0.787883 20.0012 0)
(0.787882 20.0012 0)
(0.787882 20.0012 0)
(0.787881 20.0012 0)
(0.787881 20.0012 0)
(0.78788 20.0012 0)
(0.78788 20.0012 0)
(0.78788 20.0012 0)
(0.787879 20.0012 0)
(0.787879 20.0012 0)
(0.787879 20.0012 0)
(0.787879 20.0012 0)
(0.787879 20.0012 0)
(0.787879 20.0012 0)
(0.787879 20.0012 0)
(0.787879 20.0012 0)
(0.787879 20.0012 0)
(0.787879 20.0012 0)
(0.787879 20.0012 0)
(0.787879 20.0012 0)
(0.787879 20.0012 0)
(0.787879 20.0012 0)
(0.787879 20.0012 0)
(0.787879 20.0012 0)
(0.787879 20.0012 0)
(0.787879 20.0012 0)
(0.787879 20.0012 0)
(0.787879 20.0012 0)
(0.787879 20.0012 0)
(0.787879 20.0012 0)
(0.787879 20.0012 0)
(0.787879 20.0012 0)
(0.787879 20.0012 0)
(0.787879 20.0012 0)
(0.787879 20.0012 0)
(0.787879 20.0012 0)
(0.787879 20.0012 0)
(0.787879 20.0012 0)
(0.787879 20.0012 0)
(0.787879 20.0012 0)
(0.787879 20.0012 0)
(0.787879 20.0012 0)
(0.787879 20.0012 0)
(0.787879 20.0012 0)
(0.787879 20.0012 0)
(0.787879 20.0012 0)
(0.787879 20.0012 0)
(0.787879 20.0012 0)
(0.787879 20.0012 0)
(0.78788 20.0012 0)
(0.78788 20.0012 0)
(0.78788 20.0012 0)
(0.787881 20.0012 0)
(0.787883 20.0012 0)
(0.787885 20.0012 0)
(0.787889 20.0012 0)
(0.787895 20.0012 0)
(0.787905 20.0011 0)
(0.787921 20.0011 0)
(0.787948 20.0011 0)
(0.787993 20.001 0)
(0.788067 20.001 0)
(0.788196 20.0011 0)
(0.788338 20.0014 0)
(0.788459 20.0022 0)
(0.787402 20.0032 0)
(0.755232 19.9322 0)
(0.80794 19.9406 0)
(0.821199 19.9425 0)
(0.83564 19.9489 0)
(0.838881 19.9578 0)
(0.842634 19.9667 0)
(0.844313 19.9739 0)
(0.845936 19.9796 0)
(0.847037 19.9841 0)
(0.847985 19.9877 0)
(0.848713 19.9905 0)
(0.849308 19.9927 0)
(0.849777 19.9945 0)
(0.850151 19.9959 0)
(0.850444 19.997 0)
(0.850673 19.9979 0)
(0.850851 19.9986 0)
(0.850987 19.9992 0)
(0.85109 19.9996 0)
(0.851168 20 0)
(0.851227 20.0002 0)
(0.85127 20.0005 0)
(0.851301 20.0006 0)
(0.851324 20.0007 0)
(0.85134 20.0008 0)
(0.851351 20.0009 0)
(0.851359 20.001 0)
(0.851364 20.001 0)
(0.851367 20.001 0)
(0.85137 20.0011 0)
(0.851371 20.0011 0)
(0.851372 20.0011 0)
(0.851372 20.0011 0)
(0.851372 20.0011 0)
(0.851372 20.0011 0)
(0.851372 20.0011 0)
(0.851372 20.0011 0)
(0.851372 20.0011 0)
(0.851372 20.0011 0)
(0.851372 20.0011 0)
(0.851371 20.0011 0)
(0.851371 20.0011 0)
(0.851371 20.0011 0)
(0.851371 20.0011 0)
(0.851371 20.0011 0)
(0.851371 20.0011 0)
(0.851371 20.0011 0)
(0.851371 20.0011 0)
(0.851371 20.0011 0)
(0.851371 20.0011 0)
(0.851371 20.0011 0)
(0.851371 20.0011 0)
(0.851371 20.0011 0)
(0.851371 20.0011 0)
(0.851371 20.0011 0)
(0.851371 20.0011 0)
(0.851371 20.0011 0)
(0.851371 20.0011 0)
(0.851371 20.0011 0)
(0.851371 20.0011 0)
(0.851371 20.0011 0)
(0.851371 20.0011 0)
(0.851371 20.0011 0)
(0.851371 20.0011 0)
(0.851371 20.0011 0)
(0.851371 20.0011 0)
(0.851371 20.0011 0)
(0.851371 20.0011 0)
(0.851371 20.0011 0)
(0.851371 20.0011 0)
(0.851371 20.0011 0)
(0.851371 20.0011 0)
(0.851371 20.0011 0)
(0.851371 20.0011 0)
(0.851371 20.0011 0)
(0.851371 20.0011 0)
(0.851371 20.0011 0)
(0.851371 20.0011 0)
(0.851371 20.0011 0)
(0.851371 20.0011 0)
(0.851371 20.0011 0)
(0.851371 20.0011 0)
(0.851372 20.0011 0)
(0.851372 20.0011 0)
(0.851373 20.0011 0)
(0.851375 20.0011 0)
(0.851377 20.0011 0)
(0.85138 20.0011 0)
(0.851385 20.0011 0)
(0.851393 20.0011 0)
(0.851406 20.0011 0)
(0.851425 20.001 0)
(0.851457 20.001 0)
(0.851507 20.0009 0)
(0.85159 20.0009 0)
(0.851726 20.0008 0)
(0.851959 20.0009 0)
(0.852313 20.0014 0)
(0.852787 20.0026 0)
(0.852464 20.0042 0)
(0.726939 19.8651 0)
(0.774707 19.9023 0)
(0.798032 19.9157 0)
(0.815208 19.9274 0)
(0.820443 19.9405 0)
(0.825128 19.9527 0)
(0.827599 19.9627 0)
(0.829822 19.9707 0)
(0.831431 19.977 0)
(0.83279 19.9819 0)
(0.833855 19.9859 0)
(0.834724 19.989 0)
(0.835415 19.9915 0)
(0.835969 19.9935 0)
(0.836407 19.9951 0)
(0.836753 19.9963 0)
(0.837024 19.9973 0)
(0.837235 19.9981 0)
(0.837399 19.9987 0)
(0.837524 19.9992 0)
(0.83762 19.9996 0)
(0.837693 19.9999 0)
(0.837749 20.0001 0)
(0.83779 20.0003 0)
(0.837821 20.0004 0)
(0.837843 20.0005 0)
(0.83786 20.0006 0)
(0.837872 20.0006 0)
(0.837881 20.0007 0)
(0.837888 20.0007 0)
(0.837892 20.0007 0)
(0.837896 20.0008 0)
(0.837898 20.0008 0)
(0.8379 20.0008 0)
(0.837901 20.0008 0)
(0.837901 20.0008 0)
(0.837902 20.0008 0)
(0.837902 20.0008 0)
(0.837902 20.0008 0)
(0.837903 20.0008 0)
(0.837903 20.0008 0)
(0.837903 20.0008 0)
(0.837903 20.0008 0)
(0.837903 20.0008 0)
(0.837903 20.0008 0)
(0.837903 20.0008 0)
(0.837903 20.0008 0)
(0.837903 20.0008 0)
(0.837903 20.0008 0)
(0.837903 20.0008 0)
(0.837903 20.0008 0)
(0.837903 20.0008 0)
(0.837903 20.0008 0)
(0.837903 20.0008 0)
(0.837903 20.0008 0)
(0.837903 20.0008 0)
(0.837903 20.0008 0)
(0.837903 20.0008 0)
(0.837903 20.0008 0)
(0.837903 20.0008 0)
(0.837903 20.0008 0)
(0.837903 20.0008 0)
(0.837903 20.0008 0)
(0.837903 20.0008 0)
(0.837903 20.0008 0)
(0.837903 20.0008 0)
(0.837903 20.0008 0)
(0.837903 20.0008 0)
(0.837903 20.0008 0)
(0.837903 20.0008 0)
(0.837903 20.0008 0)
(0.837903 20.0008 0)
(0.837903 20.0008 0)
(0.837903 20.0008 0)
(0.837903 20.0008 0)
(0.837903 20.0008 0)
(0.837903 20.0008 0)
(0.837903 20.0008 0)
(0.837903 20.0008 0)
(0.837903 20.0008 0)
(0.837903 20.0008 0)
(0.837904 20.0008 0)
(0.837904 20.0008 0)
(0.837905 20.0008 0)
(0.837907 20.0008 0)
(0.837909 20.0008 0)
(0.837912 20.0008 0)
(0.837917 20.0008 0)
(0.837925 20.0008 0)
(0.837937 20.0007 0)
(0.837956 20.0007 0)
(0.837985 20.0007 0)
(0.838031 20.0006 0)
(0.838105 20.0005 0)
(0.838226 20.0005 0)
(0.838429 20.0004 0)
(0.83878 20.0005 0)
(0.839384 20.0009 0)
(0.840314 20.0024 0)
(0.841163 20.0043 0)
(0.681502 19.8081 0)
(0.722089 19.863 0)
(0.751055 19.8881 0)
(0.77011 19.906 0)
(0.777085 19.9236 0)
(0.782565 19.9392 0)
(0.785716 19.9519 0)
(0.788443 19.9621 0)
(0.790481 19.9701 0)
(0.792186 19.9764 0)
(0.793538 19.9815 0)
(0.79464 19.9855 0)
(0.795521 19.9887 0)
(0.796228 19.9913 0)
(0.796791 19.9933 0)
(0.797238 19.9949 0)
(0.797589 19.9962 0)
(0.797865 19.9972 0)
(0.79808 19.998 0)
(0.798247 19.9986 0)
(0.798376 19.9991 0)
(0.798476 19.9994 0)
(0.798552 19.9997 0)
(0.798609 20 0)
(0.798653 20.0001 0)
(0.798686 20.0003 0)
(0.798711 20.0004 0)
(0.79873 20.0004 0)
(0.798743 20.0005 0)
(0.798754 20.0005 0)
(0.798761 20.0006 0)
(0.798767 20.0006 0)
(0.798771 20.0006 0)
(0.798774 20.0006 0)
(0.798776 20.0006 0)
(0.798777 20.0007 0)
(0.798779 20.0007 0)
(0.798779 20.0007 0)
(0.79878 20.0007 0)
(0.79878 20.0007 0)
(0.798781 20.0007 0)
(0.798781 20.0007 0)
(0.798781 20.0007 0)
(0.798781 20.0007 0)
(0.798781 20.0007 0)
(0.798781 20.0007 0)
(0.798781 20.0007 0)
(0.798781 20.0007 0)
(0.798781 20.0007 0)
(0.798781 20.0007 0)
(0.798781 20.0007 0)
(0.798781 20.0007 0)
(0.798781 20.0007 0)
(0.798781 20.0007 0)
(0.798781 20.0007 0)
(0.798781 20.0007 0)
(0.798781 20.0007 0)
(0.798781 20.0007 0)
(0.798781 20.0007 0)
(0.798781 20.0007 0)
(0.798781 20.0007 0)
(0.798781 20.0007 0)
(0.798781 20.0007 0)
(0.798781 20.0007 0)
(0.798781 20.0007 0)
(0.798781 20.0007 0)
(0.798781 20.0007 0)
(0.798781 20.0007 0)
(0.798781 20.0007 0)
(0.798781 20.0007 0)
(0.798781 20.0007 0)
(0.798781 20.0007 0)
(0.798781 20.0007 0)
(0.798781 20.0007 0)
(0.798781 20.0007 0)
(0.798782 20.0007 0)
(0.798782 20.0007 0)
(0.798782 20.0007 0)
(0.798782 20.0007 0)
(0.798782 20.0007 0)
(0.798782 20.0007 0)
(0.798783 20.0007 0)
(0.798784 20.0007 0)
(0.798785 20.0007 0)
(0.798787 20.0007 0)
(0.79879 20.0007 0)
(0.798794 20.0007 0)
(0.798801 20.0006 0)
(0.798811 20.0006 0)
(0.798826 20.0006 0)
(0.79885 20.0006 0)
(0.798888 20.0005 0)
(0.798948 20.0004 0)
(0.799044 20.0003 0)
(0.799202 20.0002 0)
(0.799473 20.0001 0)
(0.799949 20.0001 0)
(0.800814 20.0006 0)
(0.802217 20.002 0)
(0.804221 20.0039 0)
(0.632607 19.7598 0)
(0.666121 19.8246 0)
(0.697518 19.8604 0)
(0.71764 19.885 0)
(0.726002 19.9072 0)
(0.73212 19.9261 0)
(0.735825 19.9415 0)
(0.738953 19.9537 0)
(0.741334 19.9634 0)
(0.743315 19.9711 0)
(0.744897 19.9773 0)
(0.746186 19.9822 0)
(0.747221 19.9861 0)
(0.748052 19.9892 0)
(0.748715 19.9916 0)
(0.749243 19.9936 0)
(0.74966 19.9951 0)
(0.749988 19.9964 0)
(0.750245 19.9973 0)
(0.750446 19.9981 0)
(0.750602 19.9987 0)
(0.750723 19.9991 0)
(0.750816 19.9995 0)
(0.750887 19.9998 0)
(0.750942 20 0)
(0.750983 20.0001 0)
(0.751015 20.0003 0)
(0.751039 20.0004 0)
(0.751057 20.0004 0)
(0.75107 20.0005 0)
(0.75108 20.0005 0)
(0.751088 20.0006 0)
(0.751093 20.0006 0)
(0.751097 20.0006 0)
(0.7511 20.0006 0)
(0.751103 20.0006 0)
(0.751104 20.0006 0)
(0.751106 20.0006 0)
(0.751107 20.0006 0)
(0.751107 20.0006 0)
(0.751108 20.0007 0)
(0.751108 20.0007 0)
(0.751108 20.0007 0)
(0.751108 20.0007 0)
(0.751109 20.0007 0)
(0.751109 20.0007 0)
(0.751109 20.0007 0)
(0.751109 20.0007 0)
(0.751109 20.0007 0)
(0.751109 20.0007 0)
(0.751109 20.0007 0)
(0.751109 20.0007 0)
(0.751109 20.0007 0)
(0.751109 20.0007 0)
(0.751109 20.0007 0)
(0.751109 20.0007 0)
(0.751109 20.0007 0)
(0.751109 20.0007 0)
(0.751109 20.0007 0)
(0.751109 20.0007 0)
(0.751109 20.0007 0)
(0.751109 20.0007 0)
(0.751109 20.0007 0)
(0.751109 20.0007 0)
(0.751109 20.0007 0)
(0.751109 20.0007 0)
(0.751109 20.0007 0)
(0.751109 20.0007 0)
(0.751109 20.0007 0)
(0.751109 20.0007 0)
(0.751109 20.0007 0)
(0.751109 20.0007 0)
(0.751109 20.0007 0)
(0.751109 20.0007 0)
(0.751109 20.0007 0)
(0.751109 20.0007 0)
(0.751109 20.0007 0)
(0.751109 20.0007 0)
(0.751109 20.0007 0)
(0.75111 20.0007 0)
(0.75111 20.0007 0)
(0.751111 20.0007 0)
(0.751112 20.0006 0)
(0.751113 20.0006 0)
(0.751115 20.0006 0)
(0.751119 20.0006 0)
(0.751124 20.0006 0)
(0.751132 20.0006 0)
(0.751144 20.0006 0)
(0.751163 20.0006 0)
(0.751191 20.0005 0)
(0.751236 20.0005 0)
(0.751308 20.0004 0)
(0.751424 20.0002 0)
(0.751618 20.0001 0)
(0.751955 19.9999 0)
(0.752551 19.9999 0)
(0.75367 20.0002 0)
(0.755507 20.0015 0)
(0.758459 20.0031 0)
(0.584108 19.7185 0)
(0.611425 19.7881 0)
(0.643097 19.8331 0)
(0.663566 19.8646 0)
(0.672926 19.8913 0)
(0.679509 19.9134 0)
(0.683635 19.9313 0)
(0.68706 19.9456 0)
(0.689697 19.957 0)
(0.691885 19.966 0)
(0.693639 19.9732 0)
(0.695069 19.9789 0)
(0.696218 19.9835 0)
(0.697144 19.9871 0)
(0.697883 19.99 0)
(0.698472 19.9923 0)
(0.698939 19.9942 0)
(0.699307 19.9956 0)
(0.699597 19.9967 0)
(0.699823 19.9976 0)
(0.7 19.9983 0)
(0.700137 19.9988 0)
(0.700243 19.9993 0)
(0.700325 19.9996 0)
(0.700388 19.9999 0)
(0.700436 20 0)
(0.700473 20.0002 0)
(0.700501 20.0003 0)
(0.700522 20.0004 0)
(0.700538 20.0005 0)
(0.70055 20.0005 0)
(0.700559 20.0005 0)
(0.700566 20.0006 0)
(0.700571 20.0006 0)
(0.700575 20.0006 0)
(0.700578 20.0006 0)
(0.70058 20.0006 0)
(0.700582 20.0006 0)
(0.700583 20.0006 0)
(0.700584 20.0006 0)
(0.700584 20.0006 0)
(0.700585 20.0006 0)
(0.700585 20.0006 0)
(0.700585 20.0006 0)
(0.700586 20.0007 0)
(0.700586 20.0007 0)
(0.700586 20.0007 0)
(0.700586 20.0007 0)
(0.700586 20.0007 0)
(0.700586 20.0007 0)
(0.700586 20.0007 0)
(0.700586 20.0007 0)
(0.700586 20.0007 0)
(0.700586 20.0007 0)
(0.700586 20.0007 0)
(0.700586 20.0007 0)
(0.700586 20.0007 0)
(0.700586 20.0007 0)
(0.700586 20.0007 0)
(0.700586 20.0007 0)
(0.700586 20.0007 0)
(0.700586 20.0007 0)
(0.700586 20.0007 0)
(0.700586 20.0007 0)
(0.700586 20.0007 0)
(0.700586 20.0007 0)
(0.700586 20.0007 0)
(0.700586 20.0007 0)
(0.700586 20.0007 0)
(0.700586 20.0007 0)
(0.700586 20.0007 0)
(0.700586 20.0007 0)
(0.700586 20.0007 0)
(0.700586 20.0007 0)
(0.700586 20.0007 0)
(0.700586 20.0007 0)
(0.700586 20.0007 0)
(0.700586 20.0007 0)
(0.700587 20.0007 0)
(0.700587 20.0007 0)
(0.700587 20.0006 0)
(0.700588 20.0006 0)
(0.700589 20.0006 0)
(0.700591 20.0006 0)
(0.700594 20.0006 0)
(0.700597 20.0006 0)
(0.700603 20.0006 0)
(0.700612 20.0006 0)
(0.700626 20.0006 0)
(0.700647 20.0005 0)
(0.700679 20.0005 0)
(0.70073 20.0004 0)
(0.700812 20.0003 0)
(0.700946 20.0001 0)
(0.701171 19.9999 0)
(0.701569 19.9997 0)
(0.702276 19.9996 0)
(0.703621 19.9997 0)
(0.705827 20.0007 0)
(0.70948 20.002 0)
(0.536855 19.683 0)
(0.558994 19.7541 0)
(0.589564 19.8069 0)
(0.609779 19.8448 0)
(0.619753 19.876 0)
(0.626621 19.9012 0)
(0.631035 19.9216 0)
(0.634655 19.9378 0)
(0.637464 19.9508 0)
(0.639789 19.9611 0)
(0.641659 19.9693 0)
(0.643184 19.9758 0)
(0.644412 19.981 0)
(0.645402 19.9852 0)
(0.646193 19.9885 0)
(0.646824 19.9911 0)
(0.647325 19.9932 0)
(0.647722 19.9948 0)
(0.648033 19.9961 0)
(0.648278 19.9971 0)
(0.648469 19.9979 0)
(0.648618 19.9986 0)
(0.648734 19.9991 0)
(0.648823 19.9994 0)
(0.648892 19.9997 0)
(0.648945 19.9999 0)
(0.648986 20.0001 0)
(0.649017 20.0002 0)
(0.649041 20.0003 0)
(0.649059 20.0004 0)
(0.649072 20.0005 0)
(0.649082 20.0005 0)
(0.64909 20.0006 0)
(0.649096 20.0006 0)
(0.6491 20.0006 0)
(0.649104 20.0006 0)
(0.649106 20.0006 0)
(0.649108 20.0006 0)
(0.649109 20.0006 0)
(0.64911 20.0006 0)
(0.649111 20.0006 0)
(0.649112 20.0006 0)
(0.649112 20.0006 0)
(0.649112 20.0006 0)
(0.649112 20.0006 0)
(0.649113 20.0006 0)
(0.649113 20.0006 0)
(0.649113 20.0006 0)
(0.649113 20.0006 0)
(0.649113 20.0006 0)
(0.649113 20.0006 0)
(0.649113 20.0006 0)
(0.649113 20.0006 0)
(0.649113 20.0006 0)
(0.649113 20.0006 0)
(0.649113 20.0006 0)
(0.649113 20.0006 0)
(0.649113 20.0006 0)
(0.649113 20.0006 0)
(0.649113 20.0006 0)
(0.649113 20.0006 0)
(0.649113 20.0006 0)
(0.649113 20.0006 0)
(0.649113 20.0006 0)
(0.649113 20.0006 0)
(0.649113 20.0006 0)
(0.649113 20.0006 0)
(0.649113 20.0006 0)
(0.649113 20.0006 0)
(0.649113 20.0006 0)
(0.649113 20.0006 0)
(0.649113 20.0006 0)
(0.649113 20.0006 0)
(0.649113 20.0006 0)
(0.649113 20.0006 0)
(0.649113 20.0006 0)
(0.649113 20.0006 0)
(0.649114 20.0006 0)
(0.649114 20.0006 0)
(0.649114 20.0006 0)
(0.649115 20.0006 0)
(0.649115 20.0006 0)
(0.649117 20.0006 0)
(0.649119 20.0006 0)
(0.649121 20.0006 0)
(0.649126 20.0006 0)
(0.649132 20.0006 0)
(0.649142 20.0006 0)
(0.649156 20.0006 0)
(0.649179 20.0005 0)
(0.649214 20.0005 0)
(0.64927 20.0004 0)
(0.649359 20.0002 0)
(0.649508 20 0)
(0.64976 19.9998 0)
(0.65021 19.9995 0)
(0.651012 19.9992 0)
(0.652546 19.9992 0)
(0.655035 19.9997 0)
(0.65916 20.0005 0)
(0.490835 19.6523 0)
(0.508734 19.7229 0)
(0.537374 19.782 0)
(0.556858 19.826 0)
(0.56709 19.8614 0)
(0.574063 19.8896 0)
(0.578636 19.9123 0)
(0.582353 19.9304 0)
(0.585253 19.9448 0)
(0.587649 19.9563 0)
(0.589582 19.9655 0)
(0.591158 19.9728 0)
(0.59243 19.9787 0)
(0.593455 19.9833 0)
(0.594276 19.987 0)
(0.594931 19.9899 0)
(0.595452 19.9923 0)
(0.595864 19.9941 0)
(0.596189 19.9956 0)
(0.596444 19.9967 0)
(0.596644 19.9976 0)
(0.5968 19.9983 0)
(0.596921 19.9988 0)
(0.597015 19.9993 0)
(0.597088 19.9996 0)
(0.597144 19.9998 0)
(0.597187 20 0)
(0.59722 20.0002 0)
(0.597245 20.0003 0)
(0.597264 20.0004 0)
(0.597279 20.0004 0)
(0.59729 20.0005 0)
(0.597298 20.0005 0)
(0.597304 20.0006 0)
(0.597309 20.0006 0)
(0.597313 20.0006 0)
(0.597315 20.0006 0)
(0.597318 20.0006 0)
(0.597319 20.0006 0)
(0.59732 20.0006 0)
(0.597321 20.0006 0)
(0.597322 20.0006 0)
(0.597322 20.0006 0)
(0.597322 20.0006 0)
(0.597323 20.0006 0)
(0.597323 20.0006 0)
(0.597323 20.0006 0)
(0.597323 20.0006 0)
(0.597323 20.0006 0)
(0.597323 20.0006 0)
(0.597323 20.0006 0)
(0.597323 20.0006 0)
(0.597323 20.0006 0)
(0.597323 20.0006 0)
(0.597323 20.0006 0)
(0.597323 20.0006 0)
(0.597323 20.0006 0)
(0.597323 20.0006 0)
(0.597323 20.0006 0)
(0.597323 20.0006 0)
(0.597323 20.0006 0)
(0.597323 20.0006 0)
(0.597323 20.0006 0)
(0.597323 20.0006 0)
(0.597323 20.0006 0)
(0.597323 20.0006 0)
(0.597323 20.0006 0)
(0.597323 20.0006 0)
(0.597323 20.0006 0)
(0.597323 20.0006 0)
(0.597323 20.0006 0)
(0.597323 20.0006 0)
(0.597323 20.0006 0)
(0.597324 20.0006 0)
(0.597324 20.0006 0)
(0.597324 20.0006 0)
(0.597324 20.0006 0)
(0.597324 20.0006 0)
(0.597324 20.0006 0)
(0.597324 20.0006 0)
(0.597325 20.0006 0)
(0.597326 20.0006 0)
(0.597327 20.0006 0)
(0.597329 20.0006 0)
(0.597332 20.0006 0)
(0.597337 20.0006 0)
(0.597343 20.0006 0)
(0.597353 20.0006 0)
(0.597369 20.0005 0)
(0.597393 20.0005 0)
(0.59743 20.0004 0)
(0.597489 20.0003 0)
(0.597584 20.0002 0)
(0.597743 19.9999 0)
(0.598016 19.9996 0)
(0.598508 19.9993 0)
(0.599383 19.9988 0)
(0.601058 19.9985 0)
(0.603743 19.9985 0)
(0.608134 19.9988 0)
(0.445843 19.6257 0)
(0.460297 19.6947 0)
(0.486541 19.7587 0)
(0.504931 19.8082 0)
(0.515106 19.8476 0)
(0.522014 19.8787 0)
(0.52662 19.9036 0)
(0.530342 19.9234 0)
(0.533258 19.9392 0)
(0.535664 19.9519 0)
(0.537608 19.9619 0)
(0.539195 19.97 0)
(0.540476 19.9764 0)
(0.541509 19.9815 0)
(0.542338 19.9856 0)
(0.542999 19.9888 0)
(0.543525 19.9914 0)
(0.543942 19.9934 0)
(0.544271 19.995 0)
(0.54453 19.9963 0)
(0.544733 19.9973 0)
(0.544891 19.998 0)
(0.545015 19.9986 0)
(0.54511 19.9991 0)
(0.545185 19.9995 0)
(0.545242 19.9997 0)
(0.545286 20 0)
(0.54532 20.0001 0)
(0.545346 20.0003 0)
(0.545366 20.0003 0)
(0.545381 20.0004 0)
(0.545393 20.0005 0)
(0.545401 20.0005 0)
(0.545408 20.0006 0)
(0.545413 20.0006 0)
(0.545417 20.0006 0)
(0.54542 20.0006 0)
(0.545422 20.0006 0)
(0.545423 20.0006 0)
(0.545425 20.0006 0)
(0.545426 20.0006 0)
(0.545426 20.0006 0)
(0.545427 20.0006 0)
(0.545427 20.0006 0)
(0.545427 20.0006 0)
(0.545428 20.0006 0)
(0.545428 20.0006 0)
(0.545428 20.0006 0)
(0.545428 20.0006 0)
(0.545428 20.0006 0)
(0.545428 20.0006 0)
(0.545428 20.0006 0)
(0.545428 20.0006 0)
(0.545428 20.0006 0)
(0.545428 20.0006 0)
(0.545428 20.0006 0)
(0.545428 20.0006 0)
(0.545428 20.0006 0)
(0.545428 20.0006 0)
(0.545428 20.0006 0)
(0.545428 20.0006 0)
(0.545428 20.0006 0)
(0.545428 20.0006 0)
(0.545428 20.0006 0)
(0.545428 20.0006 0)
(0.545428 20.0006 0)
(0.545428 20.0006 0)
(0.545428 20.0006 0)
(0.545428 20.0006 0)
(0.545428 20.0006 0)
(0.545428 20.0006 0)
(0.545428 20.0006 0)
(0.545428 20.0006 0)
(0.545428 20.0006 0)
(0.545428 20.0006 0)
(0.545428 20.0006 0)
(0.545428 20.0006 0)
(0.545429 20.0006 0)
(0.545429 20.0006 0)
(0.545429 20.0006 0)
(0.54543 20.0006 0)
(0.545431 20.0006 0)
(0.545432 20.0006 0)
(0.545434 20.0006 0)
(0.545437 20.0006 0)
(0.545442 20.0006 0)
(0.545448 20.0006 0)
(0.545459 20.0006 0)
(0.545475 20.0005 0)
(0.545499 20.0005 0)
(0.545537 20.0004 0)
(0.545597 20.0003 0)
(0.545696 20.0001 0)
(0.545862 19.9999 0)
(0.546148 19.9995 0)
(0.546669 19.999 0)
(0.547593 19.9984 0)
(0.549357 19.9978 0)
(0.552147 19.9972 0)
(0.55663 19.9969 0)
(0.401665 19.6027 0)
(0.413324 19.6694 0)
(0.436941 19.7373 0)
(0.453971 19.7917 0)
(0.463817 19.8348 0)
(0.470504 19.8686 0)
(0.475028 19.8955 0)
(0.478668 19.9169 0)
(0.481528 19.934 0)
(0.483886 19.9477 0)
(0.485795 19.9586 0)
(0.487353 19.9673 0)
(0.488612 19.9743 0)
(0.489629 19.9798 0)
(0.490444 19.9843 0)
(0.491096 19.9878 0)
(0.491614 19.9906 0)
(0.492025 19.9928 0)
(0.49235 19.9945 0)
(0.492605 19.9959 0)
(0.492806 19.9969 0)
(0.492963 19.9978 0)
(0.493085 19.9984 0)
(0.49318 19.9989 0)
(0.493254 19.9993 0)
(0.493311 19.9996 0)
(0.493355 19.9999 0)
(0.493389 20.0001 0)
(0.493415 20.0002 0)
(0.493435 20.0003 0)
(0.49345 20.0004 0)
(0.493462 20.0005 0)
(0.49347 20.0005 0)
(0.493477 20.0005 0)
(0.493482 20.0006 0)
(0.493486 20.0006 0)
(0.493489 20.0006 0)
(0.493491 20.0006 0)
(0.493493 20.0006 0)
(0.493494 20.0006 0)
(0.493495 20.0006 0)
(0.493496 20.0006 0)
(0.493496 20.0006 0)
(0.493497 20.0006 0)
(0.493497 20.0006 0)
(0.493497 20.0006 0)
(0.493497 20.0006 0)
(0.493497 20.0006 0)
(0.493497 20.0006 0)
(0.493498 20.0006 0)
(0.493498 20.0006 0)
(0.493498 20.0006 0)
(0.493498 20.0006 0)
(0.493498 20.0006 0)
(0.493498 20.0006 0)
(0.493498 20.0006 0)
(0.493498 20.0006 0)
(0.493498 20.0006 0)
(0.493498 20.0006 0)
(0.493498 20.0006 0)
(0.493498 20.0006 0)
(0.493498 20.0006 0)
(0.493498 20.0006 0)
(0.493498 20.0006 0)
(0.493498 20.0006 0)
(0.493498 20.0006 0)
(0.493498 20.0006 0)
(0.493498 20.0006 0)
(0.493498 20.0006 0)
(0.493498 20.0006 0)
(0.493498 20.0006 0)
(0.493498 20.0006 0)
(0.493498 20.0006 0)
(0.493498 20.0006 0)
(0.493498 20.0006 0)
(0.493498 20.0006 0)
(0.493498 20.0006 0)
(0.493498 20.0006 0)
(0.493498 20.0006 0)
(0.493499 20.0006 0)
(0.493499 20.0006 0)
(0.4935 20.0006 0)
(0.493502 20.0006 0)
(0.493504 20.0006 0)
(0.493507 20.0006 0)
(0.493511 20.0006 0)
(0.493518 20.0006 0)
(0.493528 20.0006 0)
(0.493544 20.0005 0)
(0.493568 20.0005 0)
(0.493606 20.0004 0)
(0.493667 20.0002 0)
(0.493766 20 0)
(0.493935 19.9998 0)
(0.494227 19.9993 0)
(0.494761 19.9988 0)
(0.495708 19.998 0)
(0.497506 19.997 0)
(0.500315 19.9959 0)
(0.504741 19.995 0)
(0.358122 19.5828 0)
(0.367508 19.647 0)
(0.388415 19.7179 0)
(0.403896 19.7766 0)
(0.413186 19.823 0)
(0.419514 19.8592 0)
(0.423848 19.888 0)
(0.427325 19.9109 0)
(0.430065 19.9292 0)
(0.432322 19.9438 0)
(0.434151 19.9555 0)
(0.435645 19.9649 0)
(0.436854 19.9723 0)
(0.43783 19.9783 0)
(0.438613 19.983 0)
(0.439239 19.9868 0)
(0.439738 19.9898 0)
(0.440133 19.9922 0)
(0.440446 19.994 0)
(0.440692 19.9955 0)
(0.440885 19.9966 0)
(0.441036 19.9975 0)
(0.441155 19.9983 0)
(0.441247 19.9988 0)
(0.441318 19.9992 0)
(0.441373 19.9996 0)
(0.441416 19.9998 0)
(0.441449 20 0)
(0.441474 20.0002 0)
(0.441494 20.0003 0)
(0.441509 20.0004 0)
(0.44152 20.0004 0)
(0.441529 20.0005 0)
(0.441535 20.0005 0)
(0.44154 20.0006 0)
(0.441544 20.0006 0)
(0.441547 20.0006 0)
(0.441549 20.0006 0)
(0.441551 20.0006 0)
(0.441552 20.0006 0)
(0.441553 20.0006 0)
(0.441554 20.0006 0)
(0.441554 20.0006 0)
(0.441554 20.0006 0)
(0.441555 20.0006 0)
(0.441555 20.0006 0)
(0.441555 20.0006 0)
(0.441555 20.0006 0)
(0.441555 20.0006 0)
(0.441555 20.0006 0)
(0.441555 20.0006 0)
(0.441555 20.0006 0)
(0.441555 20.0006 0)
(0.441556 20.0006 0)
(0.441556 20.0006 0)
(0.441556 20.0006 0)
(0.441556 20.0006 0)
(0.441556 20.0006 0)
(0.441556 20.0006 0)
(0.441556 20.0006 0)
(0.441555 20.0006 0)
(0.441555 20.0006 0)
(0.441555 20.0006 0)
(0.441555 20.0006 0)
(0.441555 20.0006 0)
(0.441555 20.0006 0)
(0.441555 20.0006 0)
(0.441555 20.0006 0)
(0.441556 20.0006 0)
(0.441556 20.0006 0)
(0.441556 20.0006 0)
(0.441556 20.0006 0)
(0.441556 20.0006 0)
(0.441556 20.0006 0)
(0.441556 20.0006 0)
(0.441556 20.0006 0)
(0.441556 20.0006 0)
(0.441556 20.0006 0)
(0.441556 20.0006 0)
(0.441557 20.0006 0)
(0.441557 20.0006 0)
(0.441558 20.0006 0)
(0.441559 20.0006 0)
(0.441561 20.0006 0)
(0.441564 20.0006 0)
(0.441568 20.0006 0)
(0.441575 20.0006 0)
(0.441585 20.0006 0)
(0.4416 20.0005 0)
(0.441624 20.0004 0)
(0.441661 20.0003 0)
(0.44172 20.0002 0)
(0.441817 20 0)
(0.441985 19.9997 0)
(0.442275 19.9992 0)
(0.442807 19.9985 0)
(0.443749 19.9976 0)
(0.445527 19.9962 0)
(0.448272 19.9945 0)
(0.452516 19.9931 0)
(0.315077 19.5657 0)
(0.322603 19.6273 0)
(0.340802 19.7006 0)
(0.354607 19.763 0)
(0.363156 19.8123 0)
(0.369001 19.8507 0)
(0.37305 19.8812 0)
(0.376292 19.9054 0)
(0.378851 19.9248 0)
(0.38096 19.9403 0)
(0.38267 19.9527 0)
(0.384067 19.9626 0)
(0.385198 19.9706 0)
(0.386112 19.9769 0)
(0.386846 19.9819 0)
(0.387433 19.9859 0)
(0.3879 19.9891 0)
(0.388271 19.9916 0)
(0.388564 19.9936 0)
(0.388795 19.9951 0)
(0.388977 19.9964 0)
(0.389119 19.9973 0)
(0.38923 19.9981 0)
(0.389317 19.9987 0)
(0.389384 19.9991 0)
(0.389437 19.9995 0)
(0.389477 19.9998 0)
(0.389508 20 0)
(0.389532 20.0001 0)
(0.38955 20.0002 0)
(0.389565 20.0003 0)
(0.389575 20.0004 0)
(0.389584 20.0005 0)
(0.38959 20.0005 0)
(0.389595 20.0005 0)
(0.389598 20.0006 0)
(0.389601 20.0006 0)
(0.389603 20.0006 0)
(0.389605 20.0006 0)
(0.389606 20.0006 0)
(0.389607 20.0006 0)
(0.389607 20.0006 0)
(0.389608 20.0006 0)
(0.389608 20.0006 0)
(0.389609 20.0006 0)
(0.389609 20.0006 0)
(0.389609 20.0006 0)
(0.389609 20.0006 0)
(0.389609 20.0006 0)
(0.389609 20.0006 0)
(0.389609 20.0006 0)
(0.389609 20.0006 0)
(0.389609 20.0006 0)
(0.389609 20.0006 0)
(0.389609 20.0006 0)
(0.389609 20.0006 0)
(0.389609 20.0006 0)
(0.389609 20.0006 0)
(0.389609 20.0006 0)
(0.389609 20.0006 0)
(0.389609 20.0006 0)
(0.389609 20.0006 0)
(0.389609 20.0006 0)
(0.389609 20.0006 0)
(0.389609 20.0006 0)
(0.389609 20.0006 0)
(0.389609 20.0006 0)
(0.389609 20.0006 0)
(0.389609 20.0006 0)
(0.389609 20.0006 0)
(0.389609 20.0006 0)
(0.389609 20.0006 0)
(0.389609 20.0006 0)
(0.38961 20.0006 0)
(0.38961 20.0006 0)
(0.38961 20.0006 0)
(0.38961 20.0006 0)
(0.38961 20.0006 0)
(0.38961 20.0006 0)
(0.389611 20.0006 0)
(0.389611 20.0006 0)
(0.389612 20.0006 0)
(0.389613 20.0006 0)
(0.389615 20.0006 0)
(0.389618 20.0006 0)
(0.389622 20.0006 0)
(0.389628 20.0006 0)
(0.389637 20.0005 0)
(0.389652 20.0005 0)
(0.389674 20.0004 0)
(0.389709 20.0003 0)
(0.389765 20.0002 0)
(0.389858 19.9999 0)
(0.390019 19.9996 0)
(0.3903 19.9991 0)
(0.390814 19.9983 0)
(0.391723 19.9971 0)
(0.393429 19.9955 0)
(0.396034 19.9932 0)
(0.399994 19.9912 0)
(0.27242 19.5511 0)
(0.278411 19.6104 0)
(0.293957 19.6853 0)
(0.306001 19.7509 0)
(0.313658 19.8028 0)
(0.318918 19.8432 0)
(0.322595 19.8751 0)
(0.325537 19.9005 0)
(0.327865 19.9209 0)
(0.329781 19.9372 0)
(0.331337 19.9502 0)
(0.332608 19.9607 0)
(0.333638 19.969 0)
(0.33447 19.9756 0)
(0.335139 19.9809 0)
(0.335674 19.9851 0)
(0.3361 19.9885 0)
(0.336438 19.9911 0)
(0.336706 19.9932 0)
(0.336917 19.9948 0)
(0.337082 19.9961 0)
(0.337212 19.9971 0)
(0.337314 19.9979 0)
(0.337393 19.9986 0)
(0.337455 19.999 0)
(0.337503 19.9994 0)
(0.33754 19.9997 0)
(0.337568 19.9999 0)
(0.337591 20.0001 0)
(0.337607 20.0002 0)
(0.33762 20.0003 0)
(0.33763 20.0004 0)
(0.337638 20.0005 0)
(0.337644 20.0005 0)
(0.337648 20.0005 0)
(0.337652 20.0006 0)
(0.337654 20.0006 0)
(0.337656 20.0006 0)
(0.337658 20.0006 0)
(0.337659 20.0006 0)
(0.33766 20.0006 0)
(0.33766 20.0006 0)
(0.337661 20.0006 0)
(0.337661 20.0006 0)
(0.337661 20.0006 0)
(0.337661 20.0006 0)
(0.337662 20.0006 0)
(0.337662 20.0006 0)
(0.337662 20.0006 0)
(0.337662 20.0006 0)
(0.337662 20.0006 0)
(0.337662 20.0006 0)
(0.337662 20.0006 0)
(0.337662 20.0006 0)
(0.337662 20.0006 0)
(0.337662 20.0006 0)
(0.337662 20.0006 0)
(0.337662 20.0006 0)
(0.337662 20.0006 0)
(0.337662 20.0006 0)
(0.337662 20.0006 0)
(0.337662 20.0006 0)
(0.337662 20.0006 0)
(0.337662 20.0006 0)
(0.337662 20.0006 0)
(0.337662 20.0006 0)
(0.337662 20.0006 0)
(0.337662 20.0006 0)
(0.337662 20.0006 0)
(0.337662 20.0006 0)
(0.337662 20.0006 0)
(0.337662 20.0006 0)
(0.337662 20.0006 0)
(0.337662 20.0006 0)
(0.337662 20.0006 0)
(0.337662 20.0006 0)
(0.337662 20.0006 0)
(0.337663 20.0006 0)
(0.337663 20.0006 0)
(0.337663 20.0006 0)
(0.337664 20.0006 0)
(0.337664 20.0006 0)
(0.337665 20.0006 0)
(0.337667 20.0006 0)
(0.33767 20.0006 0)
(0.337673 20.0006 0)
(0.337679 20.0006 0)
(0.337688 20.0005 0)
(0.337701 20.0005 0)
(0.337721 20.0004 0)
(0.337753 20.0003 0)
(0.337805 20.0001 0)
(0.337892 19.9999 0)
(0.338042 19.9995 0)
(0.338304 19.9989 0)
(0.338786 19.9981 0)
(0.339635 19.9967 0)
(0.341221 19.9948 0)
(0.343618 19.992 0)
(0.347206 19.9895 0)
(0.230067 19.5389 0)
(0.234775 19.5961 0)
(0.247743 19.6723 0)
(0.257975 19.7405 0)
(0.264623 19.7946 0)
(0.26921 19.8366 0)
(0.272444 19.8699 0)
(0.275029 19.8963 0)
(0.277078 19.9175 0)
(0.278764 19.9344 0)
(0.280134 19.948 0)
(0.281254 19.9589 0)
(0.282162 19.9676 0)
(0.282896 19.9745 0)
(0.283485 19.9801 0)