/*--------------------------------*- C++ -*----------------------------------*\
| =========                 |                                                 |
| \\      /  F ield         | OpenFOAM: The Open Source CFD Toolbox           |
|  \\    /   O peration     | Version:  v1906                                 |
|   \\  /    A nd           | Web:      www.OpenFOAM.com                      |
|    \\/     M anipulation  |                                                 |
\*---------------------------------------------------------------------------*/
FoamFile
{
    version     2.0;
    format      ascii;
    class       volVectorField;
    location    "1.5";
    object      B;
}
// * * * * * * * * * * * * * * * * * * * * * * * * * * * * * * * * * * * * * //

dimensions      [1 0 -2 0 0 -1 0];


internalField   nonuniform List<vector> 
4000
(
(0.483058 20.0441 0)
(0.501107 19.9952 0)
(0.484731 19.9857 0)
(0.490835 19.9848 0)
(0.491787 19.9864 0)
(0.493872 19.989 0)
(0.494451 19.9912 0)
(0.494949 19.9931 0)
(0.495118 19.9946 0)
(0.495254 19.9957 0)
(0.495321 19.9966 0)
(0.495372 19.9973 0)
(0.495401 19.9979 0)
(0.49542 19.9984 0)
(0.495427 19.9987 0)
(0.495428 19.999 0)
(0.495424 19.9992 0)
(0.495416 19.9994 0)
(0.495405 19.9995 0)
(0.495394 19.9996 0)
(0.495381 19.9997 0)
(0.495369 19.9998 0)
(0.495358 19.9998 0)
(0.495348 19.9999 0)
(0.495338 19.9999 0)
(0.49533 19.9999 0)
(0.495323 20 0)
(0.495316 20 0)
(0.495311 20 0)
(0.495307 20 0)
(0.495303 20 0)
(0.4953 20 0)
(0.495298 20 0)
(0.495296 20 0)
(0.495294 20 0)
(0.495293 20 0)
(0.495292 20 0)
(0.495291 20 0)
(0.495291 20 0)
(0.49529 20 0)
(0.49529 20 0)
(0.49529 20 0)
(0.49529 20 0)
(0.495289 20 0)
(0.495289 20 0)
(0.495289 20 0)
(0.495289 20 0)
(0.495289 20 0)
(0.495289 20 0)
(0.495289 20 0)
(0.495289 20 0)
(0.495289 20 0)
(0.495289 20 0)
(0.495289 20 0)
(0.495289 20 0)
(0.495289 20 0)
(0.495289 20 0)
(0.495289 20 0)
(0.495289 20 0)
(0.495289 20 0)
(0.495289 20 0)
(0.495289 20 0)
(0.495289 20 0)
(0.495289 20 0)
(0.495289 20 0)
(0.495289 20 0)
(0.495289 20 0)
(0.495289 20 0)
(0.495289 20 0)
(0.495289 20 0)
(0.495289 20 0)
(0.495289 20 0)
(0.495289 20 0)
(0.495289 20 0)
(0.495289 20 0)
(0.495289 20 0)
(0.495289 20 0)
(0.495289 20 0)
(0.495289 20 0)
(0.495289 20 0)
(0.495289 20 0)
(0.495289 20 0)
(0.495289 20 0)
(0.495289 20 0)
(0.495289 20 0)
(0.495289 20 0)
(0.495289 20 0)
(0.495289 20 0)
(0.495289 20 0)
(0.495289 20 0)
(0.49529 20 0)
(0.495292 20 0)
(0.495296 20 0)
(0.495305 20 0)
(0.495323 19.9999 0)
(0.495353 19.9999 0)
(0.495402 20 0)
(0.495374 20.0002 0)
(0.495265 20.0005 0)
(0.494406 20.0007 0)
(0.842963 20.0124 0)
(0.89569 19.9676 0)
(0.897677 19.9553 0)
(0.912846 19.9548 0)
(0.917336 19.9603 0)
(0.922052 19.9677 0)
(0.924017 19.9745 0)
(0.925558 19.9801 0)
(0.926427 19.9845 0)
(0.927114 19.9879 0)
(0.927599 19.9907 0)
(0.927983 19.9928 0)
(0.928273 19.9945 0)
(0.928496 19.9959 0)
(0.928664 19.9969 0)
(0.928789 19.9978 0)
(0.928879 19.9985 0)
(0.928943 19.999 0)
(0.928987 19.9994 0)
(0.929015 19.9997 0)
(0.929033 20 0)
(0.929042 20.0002 0)
(0.929046 20.0003 0)
(0.929046 20.0005 0)
(0.929044 20.0005 0)
(0.92904 20.0006 0)
(0.929036 20.0007 0)
(0.929032 20.0007 0)
(0.929028 20.0007 0)
(0.929024 20.0007 0)
(0.929021 20.0008 0)
(0.929018 20.0008 0)
(0.929015 20.0008 0)
(0.929013 20.0008 0)
(0.929012 20.0008 0)
(0.92901 20.0008 0)
(0.929009 20.0008 0)
(0.929008 20.0008 0)
(0.929008 20.0008 0)
(0.929007 20.0008 0)
(0.929007 20.0008 0)
(0.929006 20.0008 0)
(0.929006 20.0008 0)
(0.929006 20.0008 0)
(0.929006 20.0008 0)
(0.929006 20.0008 0)
(0.929006 20.0008 0)
(0.929006 20.0008 0)
(0.929006 20.0008 0)
(0.929006 20.0008 0)
(0.929006 20.0008 0)
(0.929006 20.0008 0)
(0.929005 20.0008 0)
(0.929005 20.0008 0)
(0.929005 20.0008 0)
(0.929005 20.0008 0)
(0.929005 20.0008 0)
(0.929005 20.0008 0)
(0.929005 20.0008 0)
(0.929005 20.0008 0)
(0.929005 20.0008 0)
(0.929005 20.0008 0)
(0.929005 20.0008 0)
(0.929005 20.0008 0)
(0.929005 20.0008 0)
(0.929005 20.0008 0)
(0.929005 20.0008 0)
(0.929005 20.0008 0)
(0.929005 20.0008 0)
(0.929006 20.0008 0)
(0.929006 20.0008 0)
(0.929006 20.0008 0)
(0.929005 20.0008 0)
(0.929005 20.0008 0)
(0.929005 20.0008 0)
(0.929005 20.0008 0)
(0.929005 20.0008 0)
(0.929005 20.0008 0)
(0.929005 20.0008 0)
(0.929005 20.0008 0)
(0.929005 20.0008 0)
(0.929005 20.0008 0)
(0.929005 20.0008 0)
(0.929006 20.0008 0)
(0.929006 20.0008 0)
(0.929007 20.0008 0)
(0.929008 20.0008 0)
(0.929009 20.0008 0)
(0.929011 20.0008 0)
(0.929015 20.0008 0)
(0.929022 20.0008 0)
(0.929033 20.0007 0)
(0.929052 20.0007 0)
(0.929086 20.0007 0)
(0.929146 20.0006 0)
(0.929246 20.0006 0)
(0.92941 20.0008 0)
(0.92953 20.0013 0)
(0.929513 20.0022 0)
(0.9279 20.003 0)
(0.947613 19.9215 0)
(1.0162 19.9223 0)
(1.04466 19.9202 0)
(1.06819 19.9233 0)
(1.07685 19.9336 0)
(1.08363 19.946 0)
(1.08696 19.9571 0)
(1.08948 19.9664 0)
(1.09112 19.9737 0)
(1.09242 19.9795 0)
(1.09341 19.984 0)
(1.09419 19.9876 0)
(1.0948 19.9904 0)
(1.09529 19.9927 0)
(1.09566 19.9945 0)
(1.09595 19.9959 0)
(1.09618 19.997 0)
(1.09634 19.9979 0)
(1.09647 19.9986 0)
(1.09656 19.9991 0)
(1.09663 19.9996 0)
(1.09668 19.9999 0)
(1.09671 20.0001 0)
(1.09674 20.0003 0)
(1.09675 20.0005 0)
(1.09676 20.0006 0)
(1.09677 20.0007 0)
(1.09677 20.0007 0)
(1.09677 20.0008 0)
(1.09677 20.0008 0)
(1.09677 20.0009 0)
(1.09677 20.0009 0)
(1.09677 20.0009 0)
(1.09677 20.0009 0)
(1.09677 20.0009 0)
(1.09677 20.0009 0)
(1.09677 20.0009 0)
(1.09677 20.0009 0)
(1.09677 20.0009 0)
(1.09677 20.0009 0)
(1.09677 20.0009 0)
(1.09677 20.0009 0)
(1.09677 20.0009 0)
(1.09677 20.0009 0)
(1.09677 20.0009 0)
(1.09677 20.0009 0)
(1.09677 20.0009 0)
(1.09677 20.0009 0)
(1.09677 20.0009 0)
(1.09677 20.0009 0)
(1.09677 20.0009 0)
(1.09677 20.0009 0)
(1.09677 20.0009 0)
(1.09677 20.0009 0)
(1.09677 20.0009 0)
(1.09677 20.0009 0)
(1.09677 20.0009 0)
(1.09677 20.0009 0)
(1.09677 20.0009 0)
(1.09677 20.0009 0)
(1.09677 20.0009 0)
(1.09677 20.0009 0)
(1.09677 20.0009 0)
(1.09677 20.0009 0)
(1.09677 20.0009 0)
(1.09677 20.0009 0)
(1.09677 20.0009 0)
(1.09677 20.0009 0)
(1.09677 20.0009 0)
(1.09677 20.0009 0)
(1.09677 20.0009 0)
(1.09677 20.0009 0)
(1.09677 20.0009 0)
(1.09677 20.0009 0)
(1.09677 20.0009 0)
(1.09677 20.0009 0)
(1.09677 20.0009 0)
(1.09677 20.0009 0)
(1.09677 20.0009 0)
(1.09677 20.0009 0)
(1.09677 20.0009 0)
(1.09677 20.0009 0)
(1.09677 20.0009 0)
(1.09677 20.0009 0)
(1.09677 20.0009 0)
(1.09677 20.0009 0)
(1.09677 20.0009 0)
(1.09678 20.0009 0)
(1.09678 20.0009 0)
(1.09679 20.0009 0)
(1.09681 20.0009 0)
(1.09683 20.0008 0)
(1.09686 20.0008 0)
(1.09693 20.0007 0)
(1.09703 20.0006 0)
(1.09722 20.0006 0)
(1.09752 20.0009 0)
(1.09792 20.0016 0)
(1.09826 20.003 0)
(1.09707 20.0044 0)
(0.946 19.8216 0)
(1.01677 19.8658 0)
(1.06625 19.8804 0)
(1.09704 19.8907 0)
(1.10987 19.9069 0)
(1.11847 19.9242 0)
(1.12303 19.9397 0)
(1.12644 19.9525 0)
(1.1288 19.9627 0)
(1.13069 19.9707 0)
(1.13216 19.977 0)
(1.13333 19.9821 0)
(1.13427 19.986 0)
(1.13501 19.9892 0)
(1.13559 19.9917 0)
(1.13605 19.9937 0)
(1.13641 19.9953 0)
(1.13669 19.9965 0)
(1.1369 19.9975 0)
(1.13706 19.9982 0)
(1.13718 19.9988 0)
(1.13727 19.9993 0)
(1.13734 19.9996 0)
(1.13739 19.9999 0)
(1.13743 20.0001 0)
(1.13745 20.0003 0)
(1.13747 20.0004 0)
(1.13749 20.0005 0)
(1.1375 20.0006 0)
(1.1375 20.0006 0)
(1.13751 20.0007 0)
(1.13751 20.0007 0)
(1.13751 20.0007 0)
(1.13751 20.0007 0)
(1.13751 20.0007 0)
(1.13751 20.0007 0)
(1.13752 20.0007 0)
(1.13752 20.0007 0)
(1.13752 20.0008 0)
(1.13752 20.0008 0)
(1.13752 20.0008 0)
(1.13752 20.0008 0)
(1.13752 20.0008 0)
(1.13752 20.0008 0)
(1.13752 20.0008 0)
(1.13752 20.0008 0)
(1.13752 20.0008 0)
(1.13752 20.0008 0)
(1.13752 20.0008 0)
(1.13752 20.0008 0)
(1.13752 20.0008 0)
(1.13752 20.0008 0)
(1.13752 20.0008 0)
(1.13752 20.0008 0)
(1.13752 20.0008 0)
(1.13752 20.0008 0)
(1.13752 20.0008 0)
(1.13752 20.0008 0)
(1.13752 20.0008 0)
(1.13752 20.0008 0)
(1.13752 20.0008 0)
(1.13752 20.0008 0)
(1.13752 20.0008 0)
(1.13752 20.0008 0)
(1.13752 20.0008 0)
(1.13752 20.0008 0)
(1.13752 20.0008 0)
(1.13752 20.0008 0)
(1.13752 20.0008 0)
(1.13752 20.0008 0)
(1.13752 20.0008 0)
(1.13752 20.0008 0)
(1.13752 20.0008 0)
(1.13752 20.0008 0)
(1.13752 20.0008 0)
(1.13752 20.0008 0)
(1.13752 20.0008 0)
(1.13752 20.0008 0)
(1.13752 20.0008 0)
(1.13752 20.0008 0)
(1.13752 20.0008 0)
(1.13752 20.0008 0)
(1.13752 20.0008 0)
(1.13752 20.0008 0)
(1.13752 20.0008 0)
(1.13752 20.0007 0)
(1.13752 20.0007 0)
(1.13753 20.0007 0)
(1.13754 20.0007 0)
(1.13755 20.0007 0)
(1.13757 20.0007 0)
(1.13761 20.0006 0)
(1.13766 20.0005 0)
(1.13775 20.0004 0)
(1.13791 20.0004 0)
(1.13818 20.0003 0)
(1.13866 20.0006 0)
(1.1394 20.0014 0)
(1.14031 20.0032 0)
(1.14034 20.005 0)
(0.901553 19.73 0)
(0.967299 19.8044 0)
(1.03009 19.8373 0)
(1.06652 19.8574 0)
(1.08311 19.8804 0)
(1.09331 19.9029 0)
(1.09898 19.9227 0)
(1.10315 19.9389 0)
(1.10614 19.9519 0)
(1.10854 19.9621 0)
(1.11043 19.9702 0)
(1.11195 19.9766 0)
(1.11317 19.9817 0)
(1.11415 19.9857 0)
(1.11492 19.989 0)
(1.11554 19.9915 0)
(1.11602 19.9935 0)
(1.11639 19.9951 0)
(1.11668 19.9964 0)
(1.11691 19.9973 0)
(1.11708 19.9981 0)
(1.11721 19.9987 0)
(1.11731 19.9992 0)
(1.11739 19.9995 0)
(1.11744 19.9998 0)
(1.11749 20 0)
(1.11752 20.0002 0)
(1.11754 20.0003 0)
(1.11756 20.0004 0)
(1.11757 20.0004 0)
(1.11758 20.0005 0)
(1.11758 20.0005 0)
(1.11759 20.0006 0)
(1.11759 20.0006 0)
(1.11759 20.0006 0)
(1.1176 20.0006 0)
(1.1176 20.0006 0)
(1.1176 20.0006 0)
(1.1176 20.0006 0)
(1.1176 20.0006 0)
(1.1176 20.0006 0)
(1.1176 20.0006 0)
(1.1176 20.0006 0)
(1.1176 20.0006 0)
(1.1176 20.0006 0)
(1.1176 20.0006 0)
(1.1176 20.0006 0)
(1.1176 20.0006 0)
(1.1176 20.0006 0)
(1.1176 20.0006 0)
(1.1176 20.0006 0)
(1.1176 20.0006 0)
(1.1176 20.0006 0)
(1.1176 20.0006 0)
(1.1176 20.0006 0)
(1.1176 20.0006 0)
(1.1176 20.0006 0)
(1.1176 20.0006 0)
(1.1176 20.0006 0)
(1.1176 20.0006 0)
(1.1176 20.0006 0)
(1.1176 20.0006 0)
(1.1176 20.0006 0)
(1.1176 20.0006 0)
(1.1176 20.0006 0)
(1.1176 20.0006 0)
(1.1176 20.0006 0)
(1.1176 20.0006 0)
(1.1176 20.0006 0)
(1.1176 20.0006 0)
(1.1176 20.0006 0)
(1.1176 20.0006 0)
(1.1176 20.0006 0)
(1.1176 20.0006 0)
(1.1176 20.0006 0)
(1.1176 20.0006 0)
(1.1176 20.0006 0)
(1.1176 20.0006 0)
(1.1176 20.0006 0)
(1.1176 20.0006 0)
(1.1176 20.0006 0)
(1.1176 20.0006 0)
(1.1176 20.0006 0)
(1.1176 20.0006 0)
(1.1176 20.0006 0)
(1.11761 20.0006 0)
(1.11761 20.0006 0)
(1.11762 20.0006 0)
(1.11763 20.0006 0)
(1.11765 20.0005 0)
(1.11768 20.0005 0)
(1.11772 20.0004 0)
(1.11779 20.0003 0)
(1.11791 20.0002 0)
(1.11812 20.0001 0)
(1.11849 20 0)
(1.11914 20.0002 0)
(1.12027 20.0011 0)
(1.12184 20.003 0)
(1.12341 20.0049 0)
(0.841294 19.6497 0)
(0.899112 19.7424 0)
(0.968534 19.7926 0)
(1.00881 19.8241 0)
(1.02849 19.8544 0)
(1.04005 19.8822 0)
(1.04666 19.9062 0)
(1.05146 19.9257 0)
(1.05497 19.9413 0)
(1.05778 19.9537 0)
(1.06002 19.9635 0)
(1.06183 19.9713 0)
(1.06329 19.9775 0)
(1.06446 19.9824 0)
(1.06539 19.9863 0)
(1.06613 19.9894 0)
(1.06672 19.9919 0)
(1.06718 19.9938 0)
(1.06754 19.9954 0)
(1.06782 19.9965 0)
(1.06803 19.9975 0)
(1.0682 19.9982 0)
(1.06833 19.9988 0)
(1.06842 19.9992 0)
(1.0685 19.9995 0)
(1.06855 19.9998 0)
(1.06859 20 0)
(1.06862 20.0001 0)
(1.06865 20.0003 0)
(1.06866 20.0003 0)
(1.06868 20.0004 0)
(1.06869 20.0004 0)
(1.06869 20.0005 0)
(1.0687 20.0005 0)
(1.0687 20.0005 0)
(1.0687 20.0005 0)
(1.06871 20.0005 0)
(1.06871 20.0006 0)
(1.06871 20.0006 0)
(1.06871 20.0006 0)
(1.06871 20.0006 0)
(1.06871 20.0006 0)
(1.06871 20.0006 0)
(1.06871 20.0006 0)
(1.06871 20.0006 0)
(1.06871 20.0006 0)
(1.06871 20.0006 0)
(1.06871 20.0006 0)
(1.06871 20.0006 0)
(1.06871 20.0006 0)
(1.06871 20.0006 0)
(1.06871 20.0006 0)
(1.06871 20.0006 0)
(1.06871 20.0006 0)
(1.06871 20.0006 0)
(1.06871 20.0006 0)
(1.06871 20.0006 0)
(1.06871 20.0006 0)
(1.06871 20.0006 0)
(1.06871 20.0006 0)
(1.06871 20.0006 0)
(1.06871 20.0006 0)
(1.06871 20.0006 0)
(1.06871 20.0006 0)
(1.06871 20.0006 0)
(1.06871 20.0006 0)
(1.06871 20.0006 0)
(1.06871 20.0006 0)
(1.06871 20.0006 0)
(1.06871 20.0006 0)
(1.06871 20.0006 0)
(1.06871 20.0006 0)
(1.06871 20.0006 0)
(1.06871 20.0006 0)
(1.06871 20.0006 0)
(1.06871 20.0006 0)
(1.06871 20.0006 0)
(1.06871 20.0006 0)
(1.06871 20.0006 0)
(1.06871 20.0006 0)
(1.06871 20.0006 0)
(1.06871 20.0006 0)
(1.06871 20.0006 0)
(1.06872 20.0006 0)
(1.06872 20.0006 0)
(1.06872 20.0005 0)
(1.06873 20.0005 0)
(1.06874 20.0005 0)
(1.06875 20.0005 0)
(1.06877 20.0005 0)
(1.06881 20.0004 0)
(1.06886 20.0003 0)
(1.06895 20.0002 0)
(1.06909 20.0001 0)
(1.06935 19.9999 0)
(1.06981 19.9998 0)
(1.07064 19.9999 0)
(1.07216 20.0006 0)
(1.0744 20.0024 0)
(1.07746 20.0043 0)
(0.776506 19.5802 0)
(0.825848 19.6825 0)
(0.896914 19.7478 0)
(0.93931 19.791 0)
(0.961289 19.829 0)
(0.973917 19.8622 0)
(0.981276 19.8902 0)
(0.986555 19.9129 0)
(0.990462 19.9311 0)
(0.9936 19.9456 0)
(0.996107 19.957 0)
(0.998143 19.9662 0)
(0.999782 19.9734 0)
(1.0011 19.9792 0)
(1.00216 19.9838 0)
(1.003 19.9874 0)
(1.00367 19.9903 0)
(1.00419 19.9926 0)
(1.0046 19.9944 0)
(1.00493 19.9958 0)
(1.00518 19.9969 0)
(1.00537 19.9977 0)
(1.00552 19.9984 0)
(1.00563 19.9989 0)
(1.00572 19.9993 0)
(1.00579 19.9996 0)
(1.00584 19.9999 0)
(1.00588 20 0)
(1.0059 20.0002 0)
(1.00593 20.0003 0)
(1.00594 20.0003 0)
(1.00595 20.0004 0)
(1.00596 20.0004 0)
(1.00597 20.0005 0)
(1.00597 20.0005 0)
(1.00598 20.0005 0)
(1.00598 20.0005 0)
(1.00598 20.0005 0)
(1.00598 20.0005 0)
(1.00598 20.0005 0)
(1.00599 20.0005 0)
(1.00599 20.0005 0)
(1.00599 20.0005 0)
(1.00599 20.0005 0)
(1.00599 20.0005 0)
(1.00599 20.0005 0)
(1.00599 20.0005 0)
(1.00599 20.0005 0)
(1.00599 20.0005 0)
(1.00599 20.0005 0)
(1.00599 20.0005 0)
(1.00599 20.0005 0)
(1.00599 20.0005 0)
(1.00599 20.0005 0)
(1.00599 20.0005 0)
(1.00599 20.0005 0)
(1.00599 20.0005 0)
(1.00599 20.0005 0)
(1.00599 20.0005 0)
(1.00599 20.0005 0)
(1.00599 20.0005 0)
(1.00599 20.0005 0)
(1.00599 20.0005 0)
(1.00599 20.0005 0)
(1.00599 20.0005 0)
(1.00599 20.0005 0)
(1.00599 20.0005 0)
(1.00599 20.0005 0)
(1.00599 20.0005 0)
(1.00599 20.0005 0)
(1.00599 20.0005 0)
(1.00599 20.0005 0)
(1.00599 20.0005 0)
(1.00599 20.0005 0)
(1.00599 20.0005 0)
(1.00599 20.0005 0)
(1.00599 20.0005 0)
(1.00599 20.0005 0)
(1.00599 20.0005 0)
(1.00599 20.0005 0)
(1.00599 20.0005 0)
(1.00599 20.0005 0)
(1.00599 20.0005 0)
(1.00599 20.0005 0)
(1.006 20.0005 0)
(1.006 20.0005 0)
(1.00601 20.0005 0)
(1.00602 20.0005 0)
(1.00603 20.0005 0)
(1.00606 20.0004 0)
(1.00609 20.0004 0)
(1.00616 20.0003 0)
(1.00626 20.0001 0)
(1.00643 19.9999 0)
(1.00672 19.9997 0)
(1.00728 19.9995 0)
(1.00828 19.9995 0)
(1.01015 20 0)
(1.01301 20.0015 0)
(1.01732 20.003 0)
(0.711637 19.5205 0)
(0.753059 19.6262 0)
(0.822358 19.7039 0)
(0.865339 19.7586 0)
(0.888796 19.8044 0)
(0.902162 19.8429 0)
(0.910066 19.8748 0)
(0.915687 19.9007 0)
(0.919873 19.9213 0)
(0.923232 19.9377 0)
(0.925925 19.9508 0)
(0.928116 19.9612 0)
(0.929884 19.9695 0)
(0.931311 19.9761 0)
(0.932455 19.9813 0)
(0.933369 19.9855 0)
(0.934094 19.9888 0)
(0.934667 19.9914 0)
(0.935118 19.9934 0)
(0.935471 19.9951 0)
(0.935746 19.9963 0)
(0.93596 19.9973 0)
(0.936125 19.9981 0)
(0.936252 19.9987 0)
(0.93635 19.9991 0)
(0.936425 19.9995 0)
(0.936481 19.9997 0)
(0.936525 19.9999 0)
(0.936557 20.0001 0)
(0.936582 20.0002 0)
(0.936601 20.0003 0)
(0.936614 20.0004 0)
(0.936625 20.0004 0)
(0.936633 20.0004 0)
(0.936638 20.0005 0)
(0.936643 20.0005 0)
(0.936646 20.0005 0)
(0.936648 20.0005 0)
(0.93665 20.0005 0)
(0.936651 20.0005 0)
(0.936652 20.0005 0)
(0.936653 20.0005 0)
(0.936653 20.0005 0)
(0.936654 20.0005 0)
(0.936654 20.0005 0)
(0.936654 20.0005 0)
(0.936654 20.0005 0)
(0.936654 20.0005 0)
(0.936655 20.0005 0)
(0.936655 20.0005 0)
(0.936655 20.0005 0)
(0.936655 20.0005 0)
(0.936655 20.0005 0)
(0.936655 20.0005 0)
(0.936655 20.0005 0)
(0.936654 20.0005 0)
(0.936654 20.0005 0)
(0.936654 20.0005 0)
(0.936654 20.0005 0)
(0.936654 20.0005 0)
(0.936654 20.0005 0)
(0.936654 20.0005 0)
(0.936654 20.0005 0)
(0.936654 20.0005 0)
(0.936654 20.0005 0)
(0.936654 20.0005 0)
(0.936654 20.0005 0)
(0.936655 20.0005 0)
(0.936655 20.0005 0)
(0.936655 20.0005 0)
(0.936655 20.0005 0)
(0.936655 20.0005 0)
(0.936655 20.0005 0)
(0.936655 20.0005 0)
(0.936655 20.0005 0)
(0.936655 20.0005 0)
(0.936655 20.0005 0)
(0.936655 20.0005 0)
(0.936655 20.0005 0)
(0.936655 20.0005 0)
(0.936656 20.0005 0)
(0.936657 20.0005 0)
(0.936658 20.0005 0)
(0.93666 20.0005 0)
(0.936663 20.0005 0)
(0.936668 20.0005 0)
(0.936675 20.0005 0)
(0.936687 20.0005 0)
(0.936704 20.0004 0)
(0.93673 20.0004 0)
(0.936772 20.0003 0)
(0.93684 20.0002 0)
(0.936951 20 0)
(0.937142 19.9998 0)
(0.937477 19.9995 0)
(0.938105 19.9992 0)
(0.939251 19.999 0)
(0.941435 19.9992 0)
(0.944797 20.0003 0)
(0.950055 20.0013 0)
(0.648222 19.4692 0)
(0.682688 19.5742 0)
(0.748049 19.6618 0)
(0.790341 19.7274 0)
(0.814484 19.7808 0)
(0.828241 19.8245 0)
(0.836476 19.8602 0)
(0.842294 19.889 0)
(0.84664 19.912 0)
(0.850123 19.9303 0)
(0.852924 19.9449 0)
(0.855204 19.9565 0)
(0.857048 19.9658 0)
(0.858537 19.9731 0)
(0.859734 19.979 0)
(0.860691 19.9837 0)
(0.861451 19.9873 0)
(0.862054 19.9903 0)
(0.862529 19.9926 0)
(0.862901 19.9944 0)
(0.863192 19.9958 0)
(0.863419 19.9969 0)
(0.863595 19.9977 0)
(0.86373 19.9984 0)
(0.863835 19.9989 0)
(0.863915 19.9993 0)
(0.863976 19.9996 0)
(0.864023 19.9998 0)
(0.864058 20 0)
(0.864085 20.0001 0)
(0.864106 20.0002 0)
(0.864121 20.0003 0)
(0.864132 20.0004 0)
(0.864141 20.0004 0)
(0.864147 20.0004 0)
(0.864152 20.0005 0)
(0.864156 20.0005 0)
(0.864158 20.0005 0)
(0.86416 20.0005 0)
(0.864162 20.0005 0)
(0.864163 20.0005 0)
(0.864163 20.0005 0)
(0.864164 20.0005 0)
(0.864165 20.0005 0)
(0.864165 20.0005 0)
(0.864165 20.0005 0)
(0.864165 20.0005 0)
(0.864166 20.0005 0)
(0.864166 20.0005 0)
(0.864166 20.0005 0)
(0.864166 20.0005 0)
(0.864166 20.0005 0)
(0.864166 20.0005 0)
(0.864166 20.0005 0)
(0.864166 20.0005 0)
(0.864166 20.0005 0)
(0.864166 20.0005 0)
(0.864166 20.0005 0)
(0.864165 20.0005 0)
(0.864165 20.0005 0)
(0.864165 20.0005 0)
(0.864165 20.0005 0)
(0.864165 20.0005 0)
(0.864165 20.0005 0)
(0.864165 20.0005 0)
(0.864166 20.0005 0)
(0.864166 20.0005 0)
(0.864166 20.0005 0)
(0.864166 20.0005 0)
(0.864166 20.0005 0)
(0.864166 20.0005 0)
(0.864166 20.0005 0)
(0.864166 20.0005 0)
(0.864166 20.0005 0)
(0.864166 20.0005 0)
(0.864166 20.0005 0)
(0.864166 20.0005 0)
(0.864166 20.0005 0)
(0.864166 20.0005 0)
(0.864166 20.0005 0)
(0.864167 20.0005 0)
(0.864168 20.0005 0)
(0.864169 20.0005 0)
(0.864172 20.0005 0)
(0.864175 20.0005 0)
(0.86418 20.0005 0)
(0.864188 20.0005 0)
(0.8642 20.0005 0)
(0.864218 20.0004 0)
(0.864246 20.0004 0)
(0.864291 20.0003 0)
(0.864363 20.0001 0)
(0.864482 19.9999 0)
(0.864688 19.9997 0)
(0.865054 19.9993 0)
(0.865743 19.9989 0)
(0.867006 19.9985 0)
(0.869429 19.9984 0)
(0.87317 19.9988 0)
(0.879065 19.9993 0)
(0.586604 19.4251 0)
(0.615147 19.527 0)
(0.675286 19.6223 0)
(0.715875 19.6977 0)
(0.739978 19.7583 0)
(0.753778 19.8071 0)
(0.762128 19.8465 0)
(0.767998 19.878 0)
(0.772391 19.9031 0)
(0.775907 19.9232 0)
(0.778738 19.9392 0)
(0.781044 19.952 0)
(0.782912 19.9622 0)
(0.784423 19.9703 0)
(0.785638 19.9768 0)
(0.786611 19.9819 0)
(0.787385 19.986 0)
(0.787999 19.9892 0)
(0.788484 19.9917 0)
(0.788865 19.9937 0)
(0.789163 19.9952 0)
(0.789396 19.9965 0)
(0.789576 19.9974 0)
(0.789716 19.9982 0)
(0.789824 19.9987 0)
(0.789907 19.9992 0)
(0.789971 19.9995 0)
(0.790019 19.9997 0)
(0.790056 19.9999 0)
(0.790084 20.0001 0)
(0.790106 20.0002 0)
(0.790122 20.0003 0)
(0.790134 20.0003 0)
(0.790143 20.0004 0)
(0.79015 20.0004 0)
(0.790155 20.0005 0)
(0.790159 20.0005 0)
(0.790161 20.0005 0)
(0.790164 20.0005 0)
(0.790165 20.0005 0)
(0.790166 20.0005 0)
(0.790167 20.0005 0)
(0.790168 20.0005 0)
(0.790168 20.0005 0)
(0.790169 20.0005 0)
(0.790169 20.0005 0)
(0.790169 20.0005 0)
(0.790169 20.0005 0)
(0.790169 20.0005 0)
(0.79017 20.0005 0)
(0.79017 20.0005 0)
(0.79017 20.0005 0)
(0.79017 20.0005 0)
(0.79017 20.0005 0)
(0.790169 20.0005 0)
(0.790169 20.0005 0)
(0.790169 20.0005 0)
(0.790169 20.0005 0)
(0.790169 20.0005 0)
(0.790169 20.0005 0)
(0.790169 20.0005 0)
(0.790169 20.0005 0)
(0.790169 20.0005 0)
(0.790169 20.0005 0)
(0.790169 20.0005 0)
(0.790169 20.0005 0)
(0.790169 20.0005 0)
(0.790169 20.0005 0)
(0.79017 20.0005 0)
(0.79017 20.0005 0)
(0.79017 20.0005 0)
(0.79017 20.0005 0)
(0.79017 20.0005 0)
(0.79017 20.0005 0)
(0.79017 20.0005 0)
(0.79017 20.0005 0)
(0.79017 20.0005 0)
(0.79017 20.0005 0)
(0.79017 20.0005 0)
(0.79017 20.0005 0)
(0.790171 20.0005 0)
(0.790172 20.0005 0)
(0.790173 20.0005 0)
(0.790176 20.0005 0)
(0.790179 20.0005 0)
(0.790184 20.0005 0)
(0.790192 20.0005 0)
(0.790204 20.0004 0)
(0.790223 20.0004 0)
(0.790252 20.0003 0)
(0.790298 20.0002 0)
(0.790372 20.0001 0)
(0.790497 19.9999 0)
(0.790713 19.9996 0)
(0.7911 19.9991 0)
(0.791832 19.9986 0)
(0.793176 19.998 0)
(0.79576 19.9974 0)
(0.799742 19.9971 0)
(0.805981 19.997 0)
(0.526677 19.3872 0)
(0.550243 19.4846 0)
(0.604483 19.5857 0)
(0.642585 19.6699 0)
(0.666007 19.7373 0)
(0.679517 19.7908 0)
(0.687772 19.8336 0)
(0.693553 19.8677 0)
(0.697884 19.8949 0)
(0.701346 19.9166 0)
(0.704135 19.934 0)
(0.706409 19.9478 0)
(0.708253 19.9589 0)
(0.709746 19.9677 0)
(0.710948 19.9747 0)
(0.711911 19.9802 0)
(0.712678 19.9847 0)
(0.713287 19.9881 0)
(0.713769 19.9909 0)
(0.714147 19.9931 0)
(0.714444 19.9948 0)
(0.714676 19.9961 0)
(0.714856 19.9971 0)
(0.714996 19.9979 0)
(0.715104 19.9985 0)
(0.715188 19.999 0)
(0.715252 19.9994 0)
(0.715301 19.9997 0)
(0.715338 19.9999 0)
(0.715367 20 0)
(0.715388 20.0002 0)
(0.715405 20.0003 0)
(0.715417 20.0003 0)
(0.715426 20.0004 0)
(0.715433 20.0004 0)
(0.715438 20.0004 0)
(0.715442 20.0005 0)
(0.715445 20.0005 0)
(0.715447 20.0005 0)
(0.715449 20.0005 0)
(0.71545 20.0005 0)
(0.715451 20.0005 0)
(0.715452 20.0005 0)
(0.715452 20.0005 0)
(0.715452 20.0005 0)
(0.715453 20.0005 0)
(0.715453 20.0005 0)
(0.715453 20.0005 0)
(0.715453 20.0005 0)
(0.715453 20.0005 0)
(0.715454 20.0005 0)
(0.715454 20.0005 0)
(0.715453 20.0005 0)
(0.715453 20.0005 0)
(0.715453 20.0005 0)
(0.715453 20.0005 0)
(0.715453 20.0005 0)
(0.715453 20.0005 0)
(0.715453 20.0005 0)
(0.715453 20.0005 0)
(0.715453 20.0005 0)
(0.715453 20.0005 0)
(0.715453 20.0005 0)
(0.715453 20.0005 0)
(0.715453 20.0005 0)
(0.715453 20.0005 0)
(0.715453 20.0005 0)
(0.715453 20.0005 0)
(0.715454 20.0005 0)
(0.715454 20.0005 0)
(0.715454 20.0005 0)
(0.715454 20.0005 0)
(0.715454 20.0005 0)
(0.715454 20.0005 0)
(0.715454 20.0005 0)
(0.715454 20.0005 0)
(0.715454 20.0005 0)
(0.715454 20.0005 0)
(0.715454 20.0005 0)
(0.715454 20.0005 0)
(0.715455 20.0005 0)
(0.715456 20.0005 0)
(0.715457 20.0005 0)
(0.71546 20.0005 0)
(0.715463 20.0005 0)
(0.715468 20.0005 0)
(0.715476 20.0005 0)
(0.715488 20.0004 0)
(0.715507 20.0004 0)
(0.715536 20.0003 0)
(0.715582 20.0002 0)
(0.715657 20 0)
(0.715783 19.9998 0)
(0.716005 19.9994 0)
(0.716402 19.999 0)
(0.717156 19.9983 0)
(0.71854 19.9974 0)
(0.721201 19.9963 0)
(0.725285 19.9953 0)
(0.731606 19.9946 0)
(0.468196 19.3547 0)
(0.487591 19.447 0)
(0.535649 19.5524 0)
(0.570677 19.6443 0)
(0.592867 19.7179 0)
(0.605777 19.7758 0)
(0.613735 19.8218 0)
(0.619295 19.8582 0)
(0.623463 19.8873 0)
(0.626789 19.9106 0)
(0.629471 19.9291 0)
(0.631658 19.944 0)
(0.633434 19.9558 0)
(0.634872 19.9652 0)
(0.636031 19.9727 0)
(0.63696 19.9787 0)
(0.637701 19.9835 0)
(0.63829 19.9872 0)
(0.638756 19.9902 0)
(0.639122 19.9925 0)
(0.63941 19.9943 0)
(0.639635 19.9957 0)
(0.63981 19.9968 0)
(0.639946 19.9977 0)
(0.640051 19.9984 0)
(0.640132 19.9989 0)
(0.640195 19.9993 0)
(0.640243 19.9996 0)
(0.64028 19.9998 0)
(0.640308 20 0)
(0.640329 20.0001 0)
(0.640345 20.0002 0)
(0.640357 20.0003 0)
(0.640366 20.0004 0)
(0.640373 20.0004 0)
(0.640378 20.0004 0)
(0.640382 20.0005 0)
(0.640385 20.0005 0)
(0.640387 20.0005 0)
(0.640389 20.0005 0)
(0.64039 20.0005 0)
(0.640391 20.0005 0)
(0.640392 20.0005 0)
(0.640392 20.0005 0)
(0.640393 20.0005 0)
(0.640393 20.0005 0)
(0.640393 20.0005 0)
(0.640393 20.0005 0)
(0.640393 20.0005 0)
(0.640394 20.0005 0)
(0.640394 20.0005 0)
(0.640394 20.0005 0)
(0.640394 20.0005 0)
(0.640394 20.0005 0)
(0.640394 20.0005 0)
(0.640393 20.0005 0)
(0.640393 20.0005 0)
(0.640393 20.0005 0)
(0.640393 20.0005 0)
(0.640393 20.0005 0)
(0.640393 20.0005 0)
(0.640393 20.0005 0)
(0.640393 20.0005 0)
(0.640393 20.0005 0)
(0.640393 20.0005 0)
(0.640393 20.0005 0)
(0.640393 20.0005 0)
(0.640394 20.0005 0)
(0.640394 20.0005 0)
(0.640394 20.0005 0)
(0.640394 20.0005 0)
(0.640394 20.0005 0)
(0.640394 20.0005 0)
(0.640394 20.0005 0)
(0.640394 20.0005 0)
(0.640394 20.0005 0)
(0.640394 20.0005 0)
(0.640394 20.0005 0)
(0.640394 20.0005 0)
(0.640394 20.0005 0)
(0.640395 20.0005 0)
(0.640396 20.0005 0)
(0.640397 20.0005 0)
(0.6404 20.0005 0)
(0.640403 20.0005 0)
(0.640408 20.0005 0)
(0.640416 20.0005 0)
(0.640428 20.0004 0)
(0.640446 20.0004 0)
(0.640474 20.0003 0)
(0.640519 20.0002 0)
(0.640593 20 0)
(0.640717 19.9997 0)
(0.640937 19.9993 0)
(0.641333 19.9988 0)
(0.642088 19.9979 0)
(0.643471 19.9968 0)
(0.646124 19.9952 0)
(0.650173 19.9935 0)
(0.656353 19.9921 0)
(0.410897 19.3268 0)
(0.426781 19.4142 0)
(0.468617 19.5226 0)
(0.500142 19.621 0)
(0.520638 19.7002 0)
(0.532669 19.7622 0)
(0.540145 19.811 0)
(0.54536 19.8497 0)
(0.549271 19.8805 0)
(0.552387 19.9051 0)
(0.554901 19.9247 0)
(0.556952 19.9404 0)
(0.558618 19.953 0)
(0.559968 19.963 0)
(0.561057 19.971 0)
(0.56193 19.9773 0)
(0.562628 19.9824 0)
(0.563182 19.9863 0)
(0.56362 19.9895 0)
(0.563966 19.9919 0)
(0.564237 19.9939 0)
(0.564449 19.9954 0)
(0.564615 19.9966 0)
(0.564744 19.9975 0)
(0.564843 19.9982 0)
(0.56492 19.9988 0)
(0.56498 19.9992 0)
(0.565025 19.9995 0)
(0.56506 19.9998 0)
(0.565087 19.9999 0)
(0.565107 20.0001 0)
(0.565123 20.0002 0)
(0.565134 20.0003 0)
(0.565143 20.0003 0)
(0.56515 20.0004 0)
(0.565155 20.0004 0)
(0.565159 20.0004 0)
(0.565161 20.0005 0)
(0.565163 20.0005 0)
(0.565165 20.0005 0)
(0.565166 20.0005 0)
(0.565167 20.0005 0)
(0.565168 20.0005 0)
(0.565168 20.0005 0)
(0.565169 20.0005 0)
(0.565169 20.0005 0)
(0.565169 20.0005 0)
(0.565169 20.0005 0)
(0.565169 20.0005 0)
(0.56517 20.0005 0)
(0.56517 20.0005 0)
(0.56517 20.0005 0)
(0.56517 20.0005 0)
(0.565169 20.0005 0)
(0.565169 20.0005 0)
(0.565169 20.0005 0)
(0.565169 20.0005 0)
(0.565169 20.0005 0)
(0.565169 20.0005 0)
(0.565169 20.0005 0)
(0.565169 20.0005 0)
(0.565169 20.0005 0)
(0.565169 20.0005 0)
(0.565169 20.0005 0)
(0.565169 20.0005 0)
(0.565169 20.0005 0)
(0.565169 20.0005 0)
(0.565169 20.0005 0)
(0.56517 20.0005 0)
(0.56517 20.0005 0)
(0.56517 20.0005 0)
(0.56517 20.0005 0)
(0.56517 20.0005 0)
(0.56517 20.0005 0)
(0.56517 20.0005 0)
(0.56517 20.0005 0)
(0.56517 20.0005 0)
(0.56517 20.0005 0)
(0.56517 20.0005 0)
(0.56517 20.0005 0)
(0.565171 20.0005 0)
(0.565171 20.0005 0)
(0.565173 20.0005 0)
(0.565175 20.0005 0)
(0.565178 20.0005 0)
(0.565183 20.0005 0)
(0.565191 20.0004 0)
(0.565202 20.0004 0)
(0.565219 20.0004 0)
(0.565246 20.0003 0)
(0.565288 20.0001 0)
(0.565359 19.9999 0)
(0.565478 19.9997 0)
(0.565691 19.9992 0)
(0.566075 19.9986 0)
(0.566808 19.9976 0)
(0.568147 19.9962 0)
(0.570709 19.9942 0)
(0.574596 19.9916 0)
(0.580444 19.9896 0)
(0.354542 19.3033 0)
(0.36744 19.3859 0)
(0.403157 19.4964 0)
(0.430872 19.6004 0)
(0.449294 19.6845 0)
(0.460201 19.7501 0)
(0.467027 19.8015 0)
(0.471784 19.842 0)
(0.475352 19.8743 0)
(0.478193 19.9001 0)
(0.480484 19.9208 0)
(0.482354 19.9373 0)
(0.483874 19.9505 0)
(0.485106 19.961 0)
(0.486101 19.9694 0)
(0.486899 19.9761 0)
(0.487536 19.9814 0)
(0.488043 19.9856 0)
(0.488445 19.9889 0)
(0.488761 19.9915 0)
(0.48901 19.9935 0)
(0.489204 19.9951 0)
(0.489356 19.9963 0)
(0.489474 19.9973 0)
(0.489566 19.9981 0)
(0.489637 19.9987 0)
(0.489691 19.9991 0)
(0.489734 19.9994 0)
(0.489766 19.9997 0)
(0.48979 19.9999 0)
(0.489809 20.0001 0)
(0.489823 20.0002 0)
(0.489834 20.0003 0)
(0.489842 20.0003 0)
(0.489849 20.0004 0)
(0.489853 20.0004 0)
(0.489857 20.0004 0)
(0.489859 20.0005 0)
(0.489861 20.0005 0)
(0.489863 20.0005 0)
(0.489864 20.0005 0)
(0.489865 20.0005 0)
(0.489865 20.0005 0)
(0.489866 20.0005 0)
(0.489866 20.0005 0)
(0.489866 20.0005 0)
(0.489867 20.0005 0)
(0.489867 20.0005 0)
(0.489867 20.0005 0)
(0.489867 20.0005 0)
(0.489867 20.0005 0)
(0.489867 20.0005 0)
(0.489867 20.0005 0)
(0.489867 20.0005 0)
(0.489867 20.0005 0)
(0.489867 20.0005 0)
(0.489867 20.0005 0)
(0.489867 20.0005 0)
(0.489867 20.0005 0)
(0.489867 20.0005 0)
(0.489867 20.0005 0)
(0.489867 20.0005 0)
(0.489867 20.0005 0)
(0.489867 20.0005 0)
(0.489867 20.0005 0)
(0.489867 20.0005 0)
(0.489867 20.0005 0)
(0.489867 20.0005 0)
(0.489867 20.0005 0)
(0.489867 20.0005 0)
(0.489867 20.0005 0)
(0.489867 20.0005 0)
(0.489867 20.0005 0)
(0.489867 20.0005 0)
(0.489867 20.0005 0)
(0.489867 20.0005 0)
(0.489867 20.0005 0)
(0.489867 20.0005 0)
(0.489867 20.0005 0)
(0.489867 20.0005 0)
(0.489868 20.0005 0)
(0.489869 20.0005 0)
(0.48987 20.0005 0)
(0.489872 20.0005 0)
(0.489875 20.0005 0)
(0.48988 20.0005 0)
(0.489886 20.0004 0)
(0.489897 20.0004 0)
(0.489912 20.0003 0)
(0.489937 20.0002 0)
(0.489976 20.0001 0)
(0.490042 19.9999 0)
(0.490153 19.9996 0)
(0.490352 19.9991 0)
(0.490712 19.9984 0)
(0.4914 19.9973 0)
(0.492656 19.9956 0)
(0.49505 19.9931 0)
(0.498659 19.9899 0)
(0.504017 19.9873 0)
(0.298928 19.2836 0)
(0.309253 19.362 0)
(0.339024 19.4739 0)
(0.362714 19.5824 0)
(0.378756 19.6708 0)
(0.388328 19.7396 0)
(0.394357 19.7932 0)
(0.398556 19.8354 0)
(0.401707 19.869 0)
(0.404212 19.8959 0)
(0.406234 19.9174 0)
(0.407884 19.9346 0)
(0.409225 19.9483 0)
(0.410314 19.9593 0)
(0.411192 19.968 0)
(0.411898 19.975 0)
(0.412461 19.9805 0)
(0.41291 19.9849 0)
(0.413265 19.9883 0)
(0.413545 19.991 0)
(0.413765 19.9932 0)
(0.413938 19.9948 0)
(0.414072 19.9961 0)
(0.414177 19.9972 0)
(0.414259 19.9979 0)
(0.414322 19.9986 0)
(0.41437 19.999 0)
(0.414408 19.9994 0)
(0.414436 19.9997 0)
(0.414458 19.9999 0)
(0.414475 20 0)
(0.414488 20.0002 0)
(0.414498 20.0002 0)
(0.414505 20.0003 0)
(0.414511 20.0004 0)
(0.414515 20.0004 0)
(0.414518 20.0004 0)
(0.41452 20.0005 0)
(0.414522 20.0005 0)
(0.414523 20.0005 0)