/*--------------------------------*- C++ -*----------------------------------*\
| =========                 |                                                 |
| \\      /  F ield         | OpenFOAM: The Open Source CFD Toolbox           |
|  \\    /   O peration     | Version:  v1906                                 |
|   \\  /    A nd           | Web:      www.OpenFOAM.com                      |
|    \\/     M anipulation  |                                                 |
\*---------------------------------------------------------------------------*/
FoamFile
{
    version     2.0;
    format      ascii;
    class       volScalarField;
    location    "1.5";
    object      p;
}
// * * * * * * * * * * * * * * * * * * * * * * * * * * * * * * * * * * * * * //

dimensions      [0 2 -2 0 0 0 0];


internalField   nonuniform List<scalar> 
4000
(
838.026
820.501
814.183
802.986
795.321
785.853
777.777
769.001
760.776
752.279
744
735.615
727.316
718.975
710.669
702.346
694.036
685.72
677.409
669.096
660.785
652.472
644.161
635.849
627.537
619.226
610.914
602.602
594.291
585.979
577.667
569.355
561.044
552.732
544.42
536.109
527.797
519.485
511.174
502.862
494.55
486.238
477.927
469.615
461.303
452.992
444.68
436.368
428.057
419.745
411.433
403.121
394.81
386.498
378.186
369.874
361.563
353.251
344.939
336.627
328.316
320.004
311.692
303.381
295.069
286.757
278.445
270.134
261.822
253.51
245.199
236.887
228.575
220.264
211.952
203.64
195.328
187.017
178.705
170.393
162.081
153.77
145.458
137.146
128.834
120.523
112.211
103.899
95.5874
87.2757
78.964
70.6523
62.3407
54.0294
45.7185
37.4087
29.101
20.7972
12.5046
4.2144
836.887
820.316
814.005
802.79
795.132
785.659
777.585
768.807
760.583
752.085
743.807
735.421
727.122
718.781
710.475
702.152
693.842
685.526
677.216
668.902
660.591
652.279
643.967
635.655
627.344
619.032
610.72
602.409
594.097
585.785
577.473
569.162
560.85
552.538
544.227
535.915
527.603
519.292
510.98
502.668
494.356
486.045
477.733
469.421
461.11
452.798
444.486
436.175
427.863
419.551
411.239
402.928
394.616
386.304
377.992
369.681
361.369
353.057
344.745
336.434
328.122
319.81
311.499
303.187
294.875
286.563
278.252
269.94
261.628
253.317
245.005
236.693
228.382
220.07
211.758
203.446
195.135
186.823
178.511
170.199
161.888
153.576
145.264
136.952
128.641
120.329
112.017
103.705
95.3937
87.082
78.7703
70.4587
62.1471
53.8358
45.5248
37.215
28.9073
20.6035
12.3112
4.02427
836.359
820.244
813.933
802.701
795.051
785.571
777.5
768.719
760.497
751.998
743.72
735.334
727.035
718.694
710.388
702.065
693.755
685.439
677.128
668.815
660.504
652.191
643.88
635.568
627.256
618.945
610.633
602.321
594.01
585.698
577.386
569.074
560.763
552.451
544.139
535.828
527.516
519.204
510.892
502.581
494.269
485.957
477.646
469.334
461.022
452.711
444.399
436.087
427.776
419.464
411.152
402.84
394.529
386.217
377.905
369.593
361.282
352.97
344.658
336.346
328.035
319.723
311.411
303.099
294.788
286.476
278.164
269.853
261.541
253.229
244.918
236.606
228.294
219.982
211.671
203.359
195.047
186.736
178.424
170.112
161.8
153.489
145.177
136.865
128.553
120.242
111.93
103.618
95.3064
86.9946
78.6829
70.3713
62.0597
53.7484
45.4374
37.1276
28.82
20.5161
12.2239
3.93797
836.239
820.279
813.948
802.708
795.063
785.579
777.51
768.728
760.506
752.006
743.728
735.342
727.043
718.702
710.396
702.072
693.763
685.447
677.136
668.823
660.512
652.199
643.888
635.576
627.264
618.952
610.641
602.329
594.017
585.706
577.394
569.082
560.771
552.459
544.147
535.835
527.524
519.212
510.9
502.589
494.277
485.965
477.654
469.342
461.03
452.719
444.407
436.095
427.783
419.472
411.16
402.848
394.536
386.225
377.913
369.601
361.289
352.978
344.666
336.354
328.043
319.731
311.419
303.107
294.796
286.484
278.172
269.861
261.549
253.237
244.925
236.614
228.302
219.99
211.679
203.367
195.055
186.743
178.432
170.12
161.808
153.497
145.185
136.873
128.561
120.249
111.938
103.626
95.3142
87.0025
78.6908
70.3792
62.0676
53.7563
45.4453
37.1355
28.8278
20.524
12.2319
3.94498
836.207
820.346
813.989
802.746
795.102
785.615
777.547
768.764
760.542
752.042
743.764
735.378
727.079
718.738
710.432
702.109
693.799
685.483
677.173
668.859
660.548
652.236
643.924
635.612
627.301
618.989
610.677
602.366
594.054
585.742
577.43
569.119
560.807
552.495
544.184
535.872
527.56
519.249
510.937
502.625
494.313
486.002
477.69
469.378
461.067
452.755
444.443
436.132
427.82
419.508
411.196
402.885
394.573
386.261
377.949
369.638
361.326
353.014
344.702
336.391
328.079
319.767
311.456
303.144
294.832
286.52
278.209
269.897
261.585
253.274
244.962
236.65
228.339
220.027
211.715
203.403
195.092
186.78
178.468
170.156
161.845
153.533
145.221
136.909
128.598
120.286
111.974
103.662
95.3507
87.039
78.7273
70.4156
62.104
53.7927
45.4817
37.1719
28.8642
20.5604
12.268
3.97914
836.178
820.414
814.032
802.787
795.142
785.655
777.587
768.803
760.581
752.081
743.803
735.416
727.118
718.777
710.471
702.147
693.838
685.522
677.211
668.898
660.587
652.274
643.963
635.651
627.339
619.027
610.716
602.404
594.092
585.781
577.469
569.157
560.845
552.534
544.222
535.91
527.599
519.287
510.975
502.664
494.352
486.04
477.729
469.417
461.105
452.793
444.482
436.17
427.858
419.547
411.235
402.923
394.611
386.3
377.988
369.676
361.364
353.053
344.741
336.429
328.117
319.806
311.494
303.182
294.871
286.559
278.247
269.935
261.624
253.312
245
236.689
228.377
220.065
211.754
203.442
195.13
186.818
178.507
170.195
161.883
153.571
145.26
136.948
128.636
120.324
112.013
103.701
95.3892
87.0775
78.7657
70.4541
62.1425
53.8312
45.5202
37.2104
28.9027
20.5989
12.3063
4.01619
836.149
820.477
814.073
802.825
795.181
785.692
777.624
768.84
760.618
752.118
743.84
735.453
727.155
718.814
710.507
702.184
693.875
685.559
677.248
668.934
660.623
652.311
643.999
635.687
627.376
619.064
610.752
602.441
594.129
585.817
577.506
569.194
560.882
552.57
544.259
535.947
527.635
519.324
511.012
502.7
494.389
486.077
477.765
469.454
461.142
452.83
444.518
436.207
427.895
419.583
411.272
402.96
394.648
386.336
378.025
369.713
361.401
353.089
344.778
336.466
328.154
319.842
311.531
303.219
294.907
286.596
278.284
269.972
261.66
253.349
245.037
236.725
228.414
220.102
211.79
203.479
195.167
186.855
178.543
170.232
161.92
153.608
145.296
136.985
128.673
120.361
112.049
103.738
95.4259
87.1141
78.8024
70.4908
62.1792
53.8679
45.5569
37.2471
28.9393
20.6356
12.3428
4.05169
836.124
820.534
814.111
802.86
795.218
785.727
777.66
768.874
760.653
752.152
743.875
735.488
727.189
718.848
710.542
702.219
693.909
685.593
677.283
668.969
660.658
652.346
644.034
635.722
627.411
619.099
610.787
602.475
594.164
585.852
577.54
569.229
560.917
552.605
544.293
535.982
527.67
519.358
511.047
502.735
494.423
486.112
477.8
469.488
461.176
452.865
444.553
436.241
427.93
419.618
411.306
402.994
394.683
386.371
378.059
369.748
361.436
353.124
344.812
336.501
328.189
319.877
311.565
303.254
294.942
286.63
278.319
270.007
261.695
253.383
245.072
236.76
228.448
220.137
211.825
203.513
195.202
186.89
178.578
170.266
161.955
153.643
145.331
137.019
128.708
120.396
112.084
103.772
95.4605
87.1488
78.8371
70.5255
62.2139
53.9025
45.5916
37.2817
28.974
20.6704
12.3773
4.08524
836.102
820.586
814.147
802.893
795.252
785.759
777.693
768.907
760.686
752.185
743.907
735.52
727.222
718.881
710.574
702.251
693.942
685.626
677.315
669.001
660.69
652.378
644.066
635.754
627.443
619.131
610.819
602.508
594.196
585.884
577.573
569.261
560.949
552.637
544.326
536.014
527.702
519.391
511.079
502.767
494.456
486.144
477.832
469.52
461.209
452.897
444.585
436.274
427.962
419.65
411.339
403.027
394.715
386.403
378.092
369.78
361.468
353.156
344.845
336.533
328.221
319.909
311.598
303.286
294.974
286.663
278.351
270.039
261.727
253.416
245.104
236.792
228.481
220.169
211.857
203.546
195.234
186.922
178.61
170.299
161.987
153.675
145.363
137.052
128.74
120.428
112.116
103.805
95.4928
87.1811
78.8694
70.5577
62.2461
53.9348
45.6238
37.314
29.0062
20.7027
12.4094
4.11657
836.083
820.633
814.179
802.923
795.284
785.789
777.724
768.936
760.716
752.214
743.937
735.55
727.252
718.91
710.604
702.281
693.971
685.655
677.344
669.031
660.72
652.408
644.096
635.784
627.472
619.161
610.849
602.537
594.226
585.914
577.602
569.291
560.979
552.667
544.355
536.044
527.732
519.42
511.109
502.797
494.485
486.174
477.862
469.55
461.238
452.927
444.615
436.303
427.992
419.68
411.368
403.056
394.745
386.433
378.121
369.809
361.498
353.186
344.874
336.562
328.251
319.939
311.627
303.316
295.004
286.692
278.38
270.069
261.757
253.445
245.134
236.822
228.51
220.199
211.887
203.575
195.263
186.952
178.64
170.328
162.017
153.705
145.393
137.081
128.769
120.458
112.146
103.834
95.5225
87.2108
78.8991
70.5874
62.2758
53.9645
45.6535
37.3437
29.0358
20.7325
12.4389
4.14547
836.065
820.676
814.209
802.95
795.312
785.816
777.751
768.963
760.743
752.241
743.964
735.577
727.279
718.937
710.631
702.308
693.998
685.682
677.371
669.058
660.747
652.435
644.123
635.811
627.499
619.188
610.876
602.564
594.253
585.941
577.629
569.317
561.006
552.694
544.382
536.071
527.759
519.447
511.136
502.824
494.512
486.201
477.889
469.577
461.265
452.954
444.642
436.33
428.019
419.707
411.395
403.083
394.772
386.46
378.148
369.836
361.525
353.213
344.901
336.589
328.278
319.966
311.654
303.343
295.031
286.719
278.407
270.096
261.784
253.472
245.161
236.849
228.537
220.226
211.914
203.602
195.29
186.979
178.667
170.355
162.043
153.732
145.42
137.108
128.796
120.485
112.173
103.861
95.5495
87.2378
78.926
70.6144
62.3028
53.9915
45.6805
37.3706
29.0628
20.7596
12.4658
4.17183
836.049
820.714
814.235
802.974
795.338
785.84
777.776
768.988
760.768
752.265
743.988
735.601
727.303
718.961
710.655
702.332
694.023
685.706
677.396
669.082
660.771
652.459
644.147
635.835
627.524
619.212
610.9
602.589
594.277
585.965
577.653
569.342
561.03
552.718
544.407
536.095
527.783
519.472
511.16
502.848
494.536
486.225
477.913
469.601
461.29
452.978
444.666
436.355
428.043
419.731
411.419
403.108
394.796
386.484
378.172
369.861
361.549
353.237
344.925
336.614
328.302
319.99
311.679
303.367
295.055
286.743
278.432
270.12
261.808
253.497
245.185
236.873
228.562
220.25
211.938
203.626
195.315
187.003
178.691
170.38
162.068
153.756
145.444
137.133
128.821
120.509
112.197
103.885
95.5738
87.262
78.9503
70.6387
62.3271
54.0157
45.7047
37.3949
29.087
20.7839
12.4899
4.19561
836.035
820.747
814.259
802.996
795.361
785.861
777.798
769.009
760.79
752.287
744.01
735.623
727.324
718.983
710.677
702.354
694.044
685.728
677.417
669.104
660.793
652.48
644.169
635.857
627.545
619.234
610.922
602.61
594.298
585.987
577.675
569.363
561.052
552.74
544.428
536.117
527.805
519.493
511.181
502.87
494.558
486.246
477.935
469.623
461.311
453
444.688
436.376
428.064
419.753
411.441
403.129
394.818
386.506
378.194
369.882
361.571
353.259
344.947
336.635
328.324
320.012
311.7
303.388
295.077
286.765
278.453
270.142
261.83
253.518
245.207
236.895
228.583
220.271
211.96
203.648
195.336
187.025
178.713
170.401
162.089
153.778
145.466
137.154
128.842
120.531
112.219
103.907
95.5953
87.2836
78.9719
70.6603
62.3487
54.0373
45.7263
37.4165
29.1086
20.8056
12.5114
4.21681
836.023
820.775
814.279
803.014
795.381
785.88
777.818
769.028
760.809
752.306
744.029
735.641
727.343
719.002
710.696
702.372
694.063
685.747
677.436
669.123
660.812
652.499
644.188
635.876
627.564
619.252
610.941
602.629
594.317
586.006
577.694
569.382
561.071
552.759
544.447
536.135
527.824
519.512
511.2
502.889
494.577
486.265
477.954
469.642
461.33
453.018
444.707
436.395
428.083
419.772
411.46
403.148
394.836
386.525
378.213
369.901
361.589
353.278
344.966
336.654
328.342
320.031
311.719
303.407
295.096
286.784
278.472
270.161
261.849
253.537
245.225
236.914
228.602
220.29
211.979
203.667
195.355
187.043
178.732
170.42
162.108
153.796
145.485
137.173
128.861
120.549
112.238
103.926
95.6142
87.3025
78.9908
70.6791
62.3675
54.0562
45.7452
37.4354
29.1274
20.8246
12.5302
4.2354
836.012
820.8
814.297
803.03
795.398
785.896
777.834
769.044
760.825
752.322
744.045
735.658
727.36
719.018
710.712
702.389
694.079
685.763
677.452
669.139
660.828
652.515
644.204
635.892
627.58
619.269
610.957
602.645
594.334
586.022
577.71
569.398
561.087
552.775
544.463
536.152
527.84
519.528
511.217
502.905
494.593
486.281
477.97
469.658
461.346
453.035
444.723
436.411
428.1
419.788
411.476
403.164
394.853
386.541
378.229
369.917
361.606
353.294
344.982
336.67
328.359
320.047
311.735
303.424
295.112
286.8
278.488
270.177
261.865
253.553
245.242
236.93
228.618
220.307
211.995
203.683
195.371
187.06
178.748
170.436
162.124
153.813
145.501
137.189
128.877
120.566
112.254
103.942
95.6304
87.3187
79.007
70.6953
62.3837
54.0724
45.7614
37.4516
29.1436
20.8409
12.5463
4.25137
836.003
820.82
814.312
803.043
795.412
785.909
777.848
769.057
760.839
752.335
744.059
735.671
727.373
719.032
710.725
702.402
694.093
685.777
677.466
669.153
660.841
652.529
644.217
635.906
627.594
619.282
610.97
602.659
594.347
586.035
577.724
569.412
561.1
552.789
544.477
536.165
527.853
519.542
511.23
502.918
494.607
486.295
477.983
469.672
461.36
453.048
444.736
436.425
428.113
419.801
411.49
403.178
394.866
386.554
378.243
369.931
361.619
353.307
344.996
336.684
328.372
320.06
311.749
303.437
295.125
286.814
278.502
270.19
261.879
253.567
245.255
236.943
228.632
220.32
212.008
203.697
195.385
187.073
178.761
170.45
162.138
153.826
145.514
137.203
128.891
120.579
112.267
103.956
95.6439
87.3322
79.0205
70.7088
62.3972
54.0859
45.7749
37.4651
29.1571
20.8544
12.5598
4.26469
835.996
820.836
814.323
803.054
795.423
785.92
777.859
769.068
760.85
752.346
744.07
735.682
727.384
719.042
710.736
702.413
694.104
685.787
677.477
669.163
660.852
652.54
644.228
635.916
627.605
619.293
610.981
602.67
594.358
586.046
577.734
569.423
561.111
552.799
544.488
536.176
527.864
519.553
511.241
502.929
494.617
486.306
477.994
469.682
461.371
453.059
444.747
436.436
428.124
419.812
411.5
403.189
394.877
386.565
378.253
369.942
361.63
353.318
345.006
336.695
328.383
320.071
311.76
303.448
295.136
286.824
278.513
270.201
261.889
253.578
245.266
236.954
228.643
220.331
212.019
203.707
195.396
187.084
178.772
170.46
162.149
153.837
145.525
137.213
128.902
120.59
112.278
103.966
95.6547
87.343
79.0313
70.7196
62.408
54.0967
45.7857
37.4759
29.1679
20.8653
12.5705
4.27537
835.991
820.848
814.332
803.062
795.432
785.928
777.868
769.076
760.858
752.354
744.078
735.69
727.392
719.05
710.744
702.421
694.112
685.795
677.485
669.171
660.86
652.548
644.236
635.924
627.613
619.301
610.989
602.678
594.366
586.054
577.743
569.431
561.119
552.807
544.496
536.184
527.872
519.561
511.249
502.937
494.626
486.314
478.002
469.69
461.379
453.067
444.755
436.444
428.132
419.82
411.509
403.197
394.885
386.573
378.262
369.95
361.638
353.326
345.015
336.703
328.391
320.079
311.768
303.456
295.144
286.832
278.521
270.209
261.897
253.586
245.274
236.962
228.651
220.339
212.027
203.716
195.404
187.092
178.78
170.469
162.157
153.845
145.533
137.222
128.91
120.598
112.286
103.975
95.6628
87.3511
79.0394
70.7277
62.4161
54.1048
45.7938
37.484
29.1759
20.8734
12.5786
4.28338
835.988
820.856
814.338
803.067
795.437
785.933
777.873
769.081
760.863
752.36
744.083
735.695
727.397
719.056
710.75
702.426
694.117
685.801
677.49
669.177
660.866
652.553
644.242
635.93
627.618
619.306
610.995
602.683
594.371
586.06
577.748
569.436
561.125
552.813
544.501
536.189
527.878
519.566
511.254
502.943
494.631
486.319
478.008
469.696
461.384
453.072
444.761
436.449
428.137
419.826
411.514
403.202
394.89
386.579
378.267
369.955
361.643
353.332
345.02
336.708
328.396
320.085
311.773
303.461
295.15
286.838
278.526
270.214
261.903
253.591
245.279
236.968
228.656
220.344
212.033
203.721
195.409
187.097
178.786
170.474
162.162
153.85
145.539
137.227
128.915
120.603
112.292
103.98
95.6682
87.3565
79.0448
70.7331
62.4215
54.1102
45.7992
37.4894
29.1813
20.8788
12.5839
4.28873
835.986
820.86
814.341
803.07
795.44
785.935
777.876
769.084
760.866
752.362
744.086
735.698
727.4
719.059
710.752
702.429
694.12
685.804
677.493
669.18
660.868
652.556
644.244
635.933
627.621
619.309
610.997
602.686
594.374
586.062
577.751
569.439
561.127
552.815
544.504
536.192
527.88
519.569
511.257
502.945
494.634
486.322
478.01
469.699
461.387
453.075
444.763
436.452
428.14
419.828
411.517
403.205
394.893
386.581
378.27
369.958
361.646
353.334
345.023
336.711
328.399
320.087
311.776
303.464
295.152
286.841
278.529
270.217
261.906
253.594
245.282
236.97
228.659
220.347
212.035
203.724
195.412
187.1
178.788
170.477
162.165
153.853
145.541
137.23
128.918
120.606
112.294
103.983
95.6709
87.3592
79.0475
70.7358
62.4242
54.1129
45.8019
37.4921
29.184
20.8815
12.5866
4.2914
835.986
820.86
814.341
803.07
795.44
785.935
777.876
769.084
760.866
752.362
744.086
735.698
727.4
719.059
710.752
702.429
694.12
685.804
677.493
669.18
660.868
652.556
644.244
635.933
627.621
619.309
610.997
602.686
594.374
586.062
577.751
569.439
561.127
552.815
544.504
536.192
527.88
519.569
511.257
502.945
494.634
486.322
478.01
469.699
461.387
453.075
444.763
436.452
428.14
419.828
411.517
403.205
394.893
386.581
378.27
369.958
361.646
353.334
345.023
336.711
328.399
320.087
311.776
303.464
295.152
286.841
278.529
270.217
261.906
253.594
245.282
236.97
228.659
220.347
212.035
203.724
195.412
187.1
178.788
170.477
162.165
153.853
145.541
137.23
128.918
120.606
112.294
103.983
95.6709
87.3592
79.0475
70.7358
62.4242
54.1129
45.8019
37.4921
29.184
20.8815
12.5866
4.2914
835.988
820.856
814.338
803.067
795.437
785.933
777.873
769.081
760.863
752.36
744.083
735.695
727.397
719.056
710.75
702.426
694.117
685.801
677.49
669.177
660.866
652.553
644.242
635.93
627.618
619.306
610.995
602.683
594.371
586.06
577.748
569.436
561.125
552.813
544.501
536.189
527.878
519.566
511.254
502.943
494.631
486.319
478.008
469.696
461.384
453.072
444.761
436.449
428.137
419.826
411.514
403.202
394.89
386.579
378.267
369.955
361.643
353.332
345.02
336.708
328.396
320.085
311.773
303.461
295.15
286.838
278.526
270.214
261.903
253.591
245.279
236.968
228.656
220.344
212.033
203.721
195.409
187.097
178.786
170.474
162.162
153.85
145.539
137.227
128.915
120.603
112.292
103.98
95.6682
87.3565
79.0448
70.7331
62.4215
54.1102
45.7992
37.4894
29.1813
20.8788
12.5839
4.28873
835.991
820.848
814.332
803.062
795.432
785.928
777.868
769.076
760.858
752.354
744.078
735.69
727.392
719.05
710.744
702.421
694.112
685.795
677.485
669.171
660.86
652.548
644.236
635.924
627.613
619.301
610.989
602.678
594.366
586.054
577.743
569.431
561.119
552.807
544.496
536.184
527.872
519.561
511.249
502.937
494.626
486.314
478.002
469.69
461.379
453.067
444.755
436.444
428.132
419.82
411.509
403.197
394.885
386.573
378.262
369.95
361.638
353.326
345.015
336.703
328.391
320.079
311.768
303.456
295.144
286.832
278.521
270.209
261.897
253.586
245.274
236.962
228.651
220.339
212.027
203.716
195.404
187.092
178.78
170.469
162.157
153.845
145.533
137.222
128.91
120.598
112.286
103.975
95.6628
87.3511
79.0394
70.7277
62.4161
54.1048
45.7938
37.484
29.1759
20.8734
12.5786
4.28338
835.996
820.836
814.323
803.054
795.423
785.92
777.859
769.068
760.85
752.346
744.07
735.682
727.384
719.042
710.736
702.413
694.103
685.787
677.477
669.163
660.852
652.54
644.228
635.916
627.605
619.293
610.981
602.67
594.358
586.046
577.734
569.423
561.111
552.799
544.488
536.176
527.864
519.552
511.241
502.929
494.617
486.306
477.994
469.682
461.371
453.059
444.747
436.436
428.124
419.812
411.5
403.189
394.877
386.565
378.253
369.942
361.63
353.318
345.006
336.695
328.383
320.071
311.76
303.448
295.136
286.824
278.513
270.201
261.889
253.578
245.266
236.954
228.643
220.331
212.019
203.707
195.396
187.084
178.772
170.46
162.149
153.837
145.525
137.213
128.902
120.59
112.278
103.966
95.6547
87.343
79.0313
70.7196
62.408
54.0967
45.7857
37.4759
29.1678
20.8653
12.5705
4.27537
836.003
820.82
814.312
803.043
795.412
785.909
777.848
769.057
760.839
752.335
744.059
735.671
727.373
719.032
710.725
702.402
694.093
685.777
677.466
669.153
660.841
652.529
644.217
635.906
627.594
619.282
610.97
602.659
594.347
586.035
577.724
569.412
561.1
552.789
544.477
536.165
527.853
519.542
511.23
502.918
494.607
486.295
477.983
469.672
461.36
453.048
444.736
436.425
428.113
419.801
411.49
403.178
394.866
386.554
378.243
369.931
361.619
353.307
344.996
336.684
328.372
320.06
311.749
303.437
295.125
286.814
278.502
270.19
261.879
253.567
245.255
236.943
228.632
220.32
212.008
203.697
195.385
187.073
178.761
170.45
162.138
153.826
145.514
137.203
128.891
120.579
112.267
103.956
95.6439
87.3322
79.0205
70.7088
62.3972
54.0859
45.7749
37.4651
29.1571
20.8544
12.5598
4.26469
836.012
820.8
814.297
803.03
795.398
785.896
777.834
769.044
760.825
752.322
744.045
735.658
727.36
719.018
710.712
702.389
694.079
685.763
677.452
669.139
660.828
652.515
644.204
635.892
627.58
619.269
610.957
602.645
594.334
586.022
577.71
569.398
561.087
552.775
544.463
536.152
527.84
519.528
511.217
502.905
494.593
486.281
477.97
469.658
461.346
453.035
444.723
436.411
428.1
419.788
411.476
403.164
394.853
386.541
378.229
369.917
361.606
353.294
344.982
336.67
328.359
320.047
311.735
303.424
295.112
286.8
278.488
270.177
261.865
253.553
245.242
236.93
228.618
220.307
211.995
203.683
195.371
187.06
178.748
170.436
162.124
153.813
145.501
137.189
128.877
120.566
112.254
103.942
95.6304
87.3187
79.007
70.6953
62.3837
54.0724
45.7614
37.4516
29.1436
20.8408
12.5463
4.25137
836.023
820.776
814.279
803.014
795.381
785.88
777.818
769.028
760.809
752.306
744.029
735.641
727.343
719.002
710.696
702.372
694.063
685.747
677.436
669.123
660.812
652.499
644.188
635.876
627.564
619.252
610.941
602.629
594.317
586.006
577.694
569.382
561.071
552.759
544.447
536.135
527.824
519.512
511.2
502.889
494.577
486.265
477.954
469.642
461.33
453.019
444.707
436.395
428.083
419.772
411.46
403.148
394.836
386.525
378.213
369.901
361.589
353.278
344.966
336.654
328.342
320.031
311.719
303.407
295.096
286.784
278.472
270.161
261.849
253.537
245.225
236.914
228.602
220.29
211.979
203.667
195.355
187.043
178.732
170.42
162.108
153.796
145.485
137.173
128.861
120.549
112.238
103.926
95.6142
87.3025
78.9908
70.6791
62.3675
54.0562
45.7452
37.4354
29.1274
20.8246
12.5302
4.2354
836.035
820.747
814.259
802.996
795.361
785.861
777.798
769.009
760.79
752.287
744.01
735.623
727.324
718.983
710.677
702.354
694.044
685.728
677.417
669.104
660.793
652.48
644.169
635.857
627.545
619.234
610.922
602.61
594.298
585.987
577.675
569.363
561.052
552.74
544.428
536.117
527.805
519.493
511.181
502.87
494.558
486.246
477.935
469.623
461.311
453
444.688
436.376
428.064
419.753
411.441
403.129
394.818
386.506
378.194
369.882
361.571
353.259
344.947
336.635
328.324
320.012
311.7
303.388
295.077
286.765
278.453
270.142
261.83
253.518
245.207
236.895
228.583
220.271
211.96
203.648
195.336
187.025
178.713
170.401
162.089
153.778
145.466
137.154
128.842
120.531
112.219
103.907
95.5953
87.2836
78.9719
70.6602
62.3486
54.0373
45.7263
37.4165
29.1086
20.8056
12.5114
4.21681
836.049
820.714
814.235
802.974
795.338
785.84
777.776
768.988
760.768
752.265
743.988
735.601
727.303
718.961
710.655
702.332
694.023
685.706
677.396
669.082
660.771
652.459
644.147
635.835
627.524
619.212
610.9
602.589
594.277
585.965
577.653
569.342
561.03
552.718
544.407
536.095
527.783
519.472
511.16
502.848
494.536
486.225
477.913
469.601
461.29
452.978
444.666
436.355
428.043
419.731
411.419
403.108
394.796
386.484
378.172
369.861
361.549
353.237
344.925
336.614
328.302
319.99
311.679
303.367
295.055
286.743
278.432
270.12
261.808
253.497
245.185
236.873
228.562
220.25
211.938
203.626
195.315
187.003
178.691
170.38
162.068
153.756
145.444
137.133
128.821
120.509
112.197
103.886
95.5738
87.262
78.9503
70.6387
62.327
54.0157
45.7047
37.3949
29.087
20.7839
12.4899
4.19561
836.065
820.676
814.209
802.95
795.312
785.816
777.751
768.963
760.743
752.241
743.964
735.577
727.279
718.937
710.631
702.308
693.998
685.682
677.371
669.058
660.747
652.435
644.123
635.811
627.499
619.188
610.876
602.564
594.253
585.941
577.629
569.317
561.006
552.694
544.382
536.071
527.759
519.447
511.136
502.824
494.512
486.2
477.889
469.577
461.265
452.954
444.642
436.33
428.019
419.707
411.395
403.083
394.772
386.46
378.148
369.836
361.525
353.213
344.901
336.589
328.278
319.966
311.654
303.343
295.031
286.719
278.407
270.096
261.784
253.472
245.161
236.849
228.537
220.226
211.914
203.602
195.29
186.979
178.667
170.355
162.044
153.732
145.42
137.108
128.796
120.485
112.173
103.861
95.5495
87.2377
78.926
70.6144
62.3028
53.9914
45.6805
37.3706
29.0628
20.7595
12.4658
4.17183
836.083
820.634
814.179
802.923
795.284
785.789
777.724
768.936
760.716
752.214
743.937
735.55
727.252
718.91
710.604
702.281
693.971
685.655
677.344
669.031
660.72
652.408
644.096
635.784
627.473
619.161
610.849
602.537
594.226
585.914
577.602
569.291
560.979
552.667
544.355
536.044
527.732
519.42
511.109
502.797
494.485
486.174
477.862
469.55
461.238
452.927
444.615
436.303
427.992
419.68
411.368
403.056
394.745
386.433
378.121
369.809
361.498
353.186
344.874
336.562
328.251
319.939
311.627
303.316
295.004
286.692
278.38
270.069
261.757
253.445
245.134
236.822
228.51
220.199
211.887
203.575
195.263
186.952
178.64
170.328
162.017
153.705
145.393
137.081
128.769
120.458
112.146
103.834
95.5225
87.2108
78.899
70.5874
62.2758
53.9645
45.6535
37.3437
29.0358
20.7325
12.4389
4.14547
836.102
820.586
814.147
802.893
795.252
785.759
777.693
768.907
760.686
752.185
743.907
735.52
727.222
718.881
710.574
702.251
693.942
685.625
677.315
669.001
660.69
652.378
644.066
635.754
627.443
619.131
610.819
602.508
594.196
585.884
577.573
569.261
560.949
552.637
544.326
536.014
527.702
519.391
511.079
502.767
494.456
486.144
477.832
469.52
461.209
452.897
444.585
436.274
427.962
419.65
411.339
403.027
394.715
386.403
378.092
369.78
361.468
353.156
344.845
336.533
328.221
319.909
311.598
303.286
294.974
286.663
278.351
270.039
261.727
253.416
245.104
236.792
228.481
220.169
211.857
203.546
195.234
186.922
178.61
170.299
161.987
153.675
145.363
137.052
128.74
120.428
112.116
103.805
95.4928
87.1811
78.8694
70.5577
62.2461
53.9348
45.6238
37.314
29.0062
20.7027
12.4094
4.11658
836.124
820.534
814.111
802.86
795.218
785.727
777.66
768.874
760.653
752.152
743.875
735.488
727.189
718.848
710.542
702.219
693.909
685.593
677.282
668.969
660.658
652.346
644.034
635.722
627.411
619.099
610.787
602.475
594.164
585.852
577.54
569.229
560.917
552.605
544.293
535.982
527.67
519.358
511.047
502.735
494.423
486.112
477.8
469.488
461.177
452.865
444.553
436.241
427.93
419.618
411.306
402.994
394.683
386.371
378.059
369.748
361.436
353.124
344.812
336.501
328.189
319.877
311.565
303.254
294.942
286.63
278.319
270.007
261.695
253.383
245.072
236.76
228.448
220.137
211.825
203.513
195.202
186.89
178.578
170.266
161.955
153.643
145.331
137.019
128.708
120.396
112.084
103.772
95.4605
87.1488
78.8371
70.5254
62.2138
53.9025
45.5915
37.2817
28.9739
20.6704
12.3773
4.08524
836.149
820.477
814.073
802.825
795.181
785.692
777.624
768.84
760.618
752.118
743.84
735.453
727.155
718.814
710.507
702.184
693.875
685.559
677.248
668.934
660.623
652.311
643.999
635.688
627.376
619.064
610.752
602.441
594.129
585.817
577.506
569.194
560.882
552.57
544.259
535.947
527.635
519.324
511.012
502.7
494.389
486.077
477.765
469.454
461.142
452.83
444.518
436.207
427.895
419.583
411.272
402.96
394.648
386.336
378.025
369.713
361.401
353.089
344.778
336.466
328.154
319.842
311.531
303.219
294.907
286.596
278.284
269.972
261.66
253.349
245.037
236.725
228.414
220.102
211.79
203.479
195.167
186.855
178.543
170.232
161.92
153.608
145.296
136.985
128.673
120.361
112.049
103.738
95.4259
87.1141
78.8024
70.4908
62.1792
53.8678
45.5569
37.247
28.9393
20.6356
12.3428
4.05169
836.178
820.414
814.032
802.787
795.142
785.655
777.587
768.803
760.581
752.081
743.803
735.416
727.118
718.777
710.471
702.147
693.838
685.522
677.211
668.898
660.587
652.274
643.963
635.651
627.339
619.027
610.716
602.404
594.092
585.781
577.469
569.157
560.845
552.534
544.222
535.91
527.599
519.287
510.975
502.664
494.352
486.04
477.729
469.417
461.105
452.793
444.482
436.17
427.858
419.547
411.235
402.923
394.611
386.3
377.988
369.676
361.364
353.053
344.741
336.429
328.117
319.806
311.494
303.182
294.871
286.559
278.247
269.935
261.624
253.312
245
236.689
228.377
220.065
211.754
203.442
195.13
186.818
178.507
170.195
161.883
153.571
145.26
136.948
128.636
120.324
112.013
103.701
95.3892
87.0775
78.7657
70.4541
62.1425
53.8312
45.5202
37.2104
28.9027
20.5989
12.3063
4.01619
836.207
820.346
813.989
802.746
795.102
785.615
777.547
768.764
760.542
752.042
743.764
735.378
727.079
718.738
710.432
702.109
693.799
685.483
677.173
668.859
660.548
652.236
643.924
635.612
627.301
618.989
610.677
602.366
594.054
585.742
577.43
569.119
560.807
552.495
544.184
535.872
527.56
519.248
510.937
502.625
494.313
486.002
477.69
469.378
461.067
452.755
444.443
436.132
427.82
419.508
411.196
402.885
394.573
386.261
377.949
369.638
361.326
353.014
344.702
336.391
328.079
319.767
311.455
303.144
294.832
286.52
278.209
269.897
261.585
253.274
244.962
236.65
228.339
220.027
211.715
203.403
195.092
186.78
178.468
170.156
161.845
153.533
145.221
136.909
128.598
120.286
111.974
103.662
95.3507
87.039
78.7272
70.4156
62.104
53.7927
45.4817
37.1719
28.8642
20.5604
12.268
3.97914
836.239
820.279
813.948
802.708
795.063
785.579
777.51
768.728
760.505
752.006
743.728
735.342
727.043
718.702
710.396
702.072
693.763
685.447
677.136
668.823
660.512
652.199
643.888
635.576
627.264
618.952
610.641
602.329
594.017
585.706
577.394
569.082
560.771
552.459
544.147
535.835
527.524
519.212
510.9
502.589
494.277
485.965
477.654
469.342
461.03
452.719
444.407
436.095
427.783
419.472
411.16
402.848
394.536
386.225
377.913
369.601
361.289
352.978
344.666
336.354
328.042
319.731
311.419
303.107
294.796
286.484
278.172
269.861
261.549
253.237
244.925
236.614
228.302
219.99
211.679
203.367
195.055
186.744
178.432
170.12
161.808
153.497
145.185
136.873
128.561
120.25
111.938
103.626
95.3142
87.0025
78.6908
70.3792
62.0676