/*--------------------------------*- C++ -*----------------------------------*\
| =========                 |                                                 |
| \\      /  F ield         | OpenFOAM: The Open Source CFD Toolbox           |
|  \\    /   O peration     | Version:  v1906                                 |
|   \\  /    A nd           | Web:      www.OpenFOAM.com                      |
|    \\/     M anipulation  |                                                 |
\*---------------------------------------------------------------------------*/
FoamFile
{
    version     2.0;
    format      ascii;
    class       volScalarField;
    location    "1.5";
    object      p;
}
// * * * * * * * * * * * * * * * * * * * * * * * * * * * * * * * * * * * * * //

dimensions      [0 2 -2 0 0 0 0];


internalField   nonuniform List<scalar> 
4000
(
427.058
413.821
409.765
404.49
399.805
395.016
390.413
385.867
381.411
377.009
372.657
368.343
364.061
359.803
355.566
351.346
347.138
342.941
338.753
334.571
330.395
326.223
322.055
317.889
313.726
309.564
305.403
301.244
297.085
292.927
288.77
284.613
280.456
276.299
272.143
267.986
263.83
259.674
255.518
251.362
247.206
243.05
238.894
234.738
230.583
226.427
222.271
218.115
213.959
209.803
205.647
201.491
197.336
193.18
189.024
184.868
180.712
176.556
172.4
168.245
164.089
159.933
155.777
151.621
147.465
143.31
139.154
134.998
130.842
126.686
122.53
118.374
114.219
110.063
105.907
101.751
97.5952
93.4394
89.2836
85.1277
80.9719
76.8161
72.6603
68.5046
64.3489
60.1933
56.0378
51.8824
47.7273
43.5726
39.4185
35.2652
31.1131
26.9629
22.8153
18.6709
14.531
10.3928
6.27116
2.14861
424.611
413.731
409.615
404.302
399.615
394.825
390.221
385.675
381.218
376.815
372.463
368.149
363.866
359.609
355.372
351.151
346.943
342.746
338.558
334.376
330.2
326.028
321.86
317.694
313.53
309.369
305.208
301.049
296.89
292.732
288.574
284.417
280.261
276.104
271.948
267.791
263.635
259.479
255.323
251.167
247.011
242.855
238.699
234.543
230.387
226.231
222.076
217.92
213.764
209.608
205.452
201.296
197.14
192.984
188.829
184.673
180.517
176.361
172.205
168.049
163.893
159.738
155.582
151.426
147.27
143.114
138.958
134.803
130.647
126.491
122.335
118.179
114.023
109.867
105.712
101.556
97.3999
93.2441
89.0883
84.9324
80.7766
76.6208
72.465
68.3093
64.1536
59.998
55.8425
51.6871
47.532
43.3773
39.2232
35.0699
30.9178
26.7676
22.6199
18.4756
14.3358
10.1981
6.07779
1.96699
423.329
413.728
409.568
404.223
399.537
394.742
390.139
385.591
381.134
376.73
372.378
368.063
363.78
359.523
355.285
351.065
346.857
342.66
338.471
334.29
330.113
325.941
321.773
317.607
313.444
309.282
305.121
300.962
296.803
292.645
288.488
284.33
280.174
276.017
271.861
267.704
263.548
259.392
255.236
251.08
246.924
242.768
238.612
234.456
230.3
226.144
221.989
217.833
213.677
209.521
205.365
201.209
197.053
192.898
188.742
184.586
180.43
176.274
172.118
167.962
163.807
159.651
155.495
151.339
147.183
143.027
138.871
134.716
130.56
126.404
122.248
118.092
113.936
109.781
105.625
101.469
97.313
93.1572
89.0013
84.8455
80.6897
76.5339
72.3781
68.2224
64.0667
59.9111
55.7556
51.6002
47.4451
43.2904
39.1362
34.9829
30.8308
26.6806
22.5329
18.3886
14.2489
10.1113
5.99166
1.88587
422.81
413.82
409.605
404.24
399.554
394.754
390.151
385.603
381.145
376.741
372.388
368.073
363.79
359.532
355.295
351.073
346.866
342.669
338.48
334.298
330.122
325.95
321.781
317.616
313.452
309.29
305.13
300.97
296.811
292.653
288.496
284.339
280.182
276.025
271.869
267.713
263.557
259.4
255.244
251.088
246.932
242.776
238.621
234.465
230.309
226.153
221.997
217.841
213.685
209.529
205.374
201.218
197.062
192.906
188.75
184.594
180.438
176.282
172.127
167.971
163.815
159.659
155.503
151.347
147.192
143.036
138.88
134.724
130.568
126.412
122.256
118.101
113.945
109.789
105.633
101.477
97.3214
93.1656
89.0097
84.8539
80.6981
76.5423
72.3865
68.2308
64.0751
59.9195
55.764
51.6086
47.4535
43.2988
39.1446
34.9913
30.8392
26.6889
22.5413
18.3969
14.2573
10.1201
5.99927
1.89067
422.472
413.931
409.669
404.287
399.597
394.793
390.19
385.641
381.183
376.779
372.426
368.11
363.827
359.569
355.332
351.11
346.903
342.705
338.517
334.335
330.158
325.986
321.818
317.652
313.489
309.327
305.166
301.007
296.848
292.69
288.532
284.375
280.218
276.062
271.905
267.749
263.593
259.437
255.281
251.125
246.969
242.813
238.657
234.501
230.345
226.189
222.033
217.878
213.722
209.566
205.41
201.254
197.098
192.942
188.786
184.631
180.475
176.319
172.163
168.007
163.851
159.695
155.54
151.384
147.228
143.072
138.916
134.76
130.605
126.449
122.293
118.137
113.981
109.825
105.67
101.514
97.3578
93.202
89.0461
84.8903
80.7345
76.5787
72.4229
68.2672
64.1115
59.9559
55.8003
51.645
47.4899
43.3352
39.181
35.0276
30.8755
26.7253
22.5776
18.4333
14.2938
10.1564
6.03463
1.92171
422.167
414.026
409.736
404.336
399.642
394.834
390.232
385.681
381.223
376.818
372.465
368.15
363.866
359.608
355.37
351.149
346.941
342.744
338.555
334.373
330.197
326.025
321.856
317.69
313.527
309.365
305.204
301.045
296.886
292.728
288.571
284.414
280.257
276.1
271.944
267.787
263.631
259.475
255.319
251.163
247.007
242.851
238.695
234.539
230.384
226.228
222.072
217.916
213.76
209.604
205.448
201.292
197.137
192.981
188.825
184.669
180.513
176.357
172.201
168.046
163.89
159.734
155.578
151.422
147.266
143.11
138.955
134.799
130.643
126.487
122.331
118.175
114.02
109.864
105.708
101.552
97.3962
93.2403
89.0845
84.9287
80.7729
76.6171
72.4613
68.3055
64.1498
59.9942
55.8387
51.6834
47.5283
43.3735
39.2193
35.066
30.9139
26.7636
22.6159
18.4716
14.3321
10.1952
6.07234
1.95497
421.895
414.103
409.799
404.384
399.685
394.873
390.271
385.72
381.262
376.856
372.503
368.187
363.904
359.645
355.407
351.186
346.978
342.781
338.592
334.41
330.234
326.062
321.893
317.727
313.564
309.402
305.241
301.082
296.923
292.765
288.607
284.45
280.293
276.137
271.98
267.824
263.668
259.512
255.356
251.2
247.044
242.888
238.732
234.576
230.42
226.264
222.108
217.953
213.797
209.641
205.485
201.329
197.173
193.017
188.861
184.706
180.55
176.394
172.238
168.082
163.926
159.771
155.615
151.459
147.303
143.147
138.991
134.835
130.68
126.524
122.368
118.212
114.056
109.9
105.745
101.589
97.4328
93.277
89.1212
84.9653
80.8095
76.6537
72.4979
68.3422
64.1865
60.0309
55.8754
51.72
47.5649
43.4102
39.256
35.1026
30.9505
26.8002
22.6525
18.5082
14.3689
10.2324
6.10819
1.98638
421.66
414.167
409.858
404.43
399.725
394.909
390.307
385.756
381.298
376.892
372.539
368.223
363.939
359.68
355.442
351.221
347.013
342.816
338.627
334.445
330.268
326.096
321.928
317.762
313.598
309.436
305.276
301.116
296.958
292.8
288.642
284.485
280.328
276.172
272.015
267.859
263.703
259.547
255.39
251.234
247.079
242.923
238.767
234.611
230.455
226.299
222.143
217.987
213.831
209.675
205.52
201.364
197.208
193.052
188.896
184.74
180.584
176.429
172.273
168.117
163.961
159.805
155.649
151.494
147.338
143.182
139.026
134.87
130.714
126.558
122.403
118.247
114.091
109.935
105.779
101.623
97.4675
93.3117
89.1558
85
80.8442
76.6884
72.5326
68.3769
64.2212
60.0656
55.91
51.7547
47.5996
43.4448
39.2906
35.1373
30.9851
26.8348
22.6871
18.5429
14.4036
10.2678
6.14195
2.01579
421.454
414.218
409.913
404.474
399.762
394.943
390.341
385.789
381.331
376.925
372.572
368.256
363.972
359.713
355.475
351.254
347.045
342.848
338.659
334.477
330.301
326.129
321.96
317.794
313.631
309.469
305.308
301.149
296.99
292.832
288.674
284.517
280.36
276.204
272.047
267.891
263.735
259.579
255.423
251.267
247.111
242.955
238.799
234.643
230.487
226.331
222.175
218.02
213.864
209.708
205.552
201.396
197.24
193.084
188.928
184.773
180.617
176.461
172.305
168.149
163.993
159.837
155.682
151.526
147.37
143.214
139.058
134.902
130.747
126.591
122.435
118.279
114.123
109.967
105.811
101.656
97.4998
93.344
89.1881
85.0323
80.8765
76.7207
72.5649
68.4092
64.2535
60.0978
55.9423
51.787
47.6319
43.4771
39.3229
35.1695
31.0174
26.8671
22.7193
18.5752
14.436
10.3008
6.17341
2.04304
421.275
414.26
409.963
404.514
399.795
394.973
390.372
385.82
381.362
376.956
372.602
368.286
364.002
359.743
355.505
351.284
347.075
342.878
338.689
334.507
330.33
326.158
321.99
317.824
313.66
309.498
305.338
301.178
297.02
292.862
288.704
284.547
280.39
276.233
272.077
267.921
263.765
259.608
255.452
251.296
247.14
242.985
238.829
234.673
230.517
226.361
222.205
218.049
213.893
209.737
205.582
201.426
197.27
193.114
188.958
184.802
180.646
176.491
172.335
168.179
164.023
159.867
155.711
151.555
147.4
143.244
139.088
134.932
130.776
126.62
122.465
118.309
114.153
109.997
105.841
101.685
97.5295
93.3736
89.2178
85.062
80.9062
76.7504
72.5946
68.4388
64.2831
60.1275
55.972
51.8166
47.6615
43.5068
39.3526
35.1992
31.047
26.8967
22.749
18.6049
14.4657
10.3313
6.20235
2.06797
421.118
414.293
410.009
404.551
399.826
395.001
390.4
385.847
381.389
376.983
372.63
368.313
364.029
359.77
355.532
351.311
347.102
342.905
338.716
334.534
330.358
326.185
322.017
317.851
313.687
309.525
305.365
301.205
297.047
292.889
288.731
284.574
280.417
276.26
272.104
267.948
263.792
259.635
255.479
251.323
247.167
243.011
238.856
234.7
230.544
226.388
222.232
218.076
213.92
209.764
205.609
201.453
197.297
193.141
188.985
184.829
180.673
176.518
172.362
168.206
164.05
159.894
155.738
151.582
147.427
143.271
139.115
134.959
130.803
126.647
122.492
118.336
114.18
110.024
105.868
101.712
97.5565
93.4006
89.2448
85.089
80.9331
76.7773
72.6216
68.4658
64.3101
60.1545
55.999
51.8436
47.6885
43.5337
39.3795
35.2262
31.074
26.9237
22.7759
18.6319
14.4928
10.3592
6.2287
2.09057
420.982
414.32
410.049
404.585
399.853
395.026
390.425
385.872
381.414
377.008
372.654
368.338
364.054
359.795
355.557
351.335
347.127
342.929
338.74
334.558
330.382
326.21
322.041
317.875
313.712
309.55
305.389
301.229
297.071
292.913
288.755
284.598
280.441
276.285
272.128
267.972
263.816
259.66
255.504
251.348
247.192
243.036
238.88
234.724
230.568
226.412
222.256
218.1
213.945
209.789
205.633
201.477
197.321
193.165
189.009
184.854
180.698
176.542
172.386
168.23
164.074
159.918
155.763
151.607
147.451
143.295
139.139
134.983
130.828
126.672
122.516
118.36
114.204
110.048
105.892
101.737
97.5807
93.4249
89.2691
85.1132
80.9574
76.8016
72.6458
68.4901
64.3344
60.1788
56.0232
51.8679
47.7128
43.558
39.4038
35.2504
31.0983
26.9479
22.8001
18.6563
14.5171
10.3843
6.25243
2.11084
420.865
414.341
410.084
404.615
399.877
395.048
390.447
385.894
381.436
377.03
372.676
368.36
364.076
359.817
355.578
351.357
347.149
342.951
338.762
334.58
330.403
326.231
322.063
317.897
313.733
309.571
305.411
301.251
297.092
292.934
288.777
284.62
280.463
276.306
272.15
267.994
263.837
259.681
255.525
251.369
247.213
243.057
238.901
234.746
230.59
226.434
222.278
218.122
213.966
209.81
205.654
201.499
197.343
193.187
189.031
184.875
180.719
176.563
172.408
168.252
164.096
159.94
155.784
151.628
147.472
143.317
139.161
135.005
130.849
126.693
122.537
118.382
114.226
110.07
105.914
101.758
97.6023
93.4465
89.2907
85.1348
80.979
76.8232
72.6674
68.5117
64.356
60.2004
56.0448
51.8895
47.7344
43.5796
39.4254
35.272
31.1198
26.9695
22.8217
18.6779
14.5388
10.4067
6.27355
2.12882
420.766
414.358
410.115
404.642
399.899
395.067
390.466
385.913
381.456
377.049
372.695
368.379
364.095
359.836
355.598
351.376
347.168
342.97
338.781
334.599
330.422
326.25
322.082
317.916
313.752
309.59
305.429
301.27
297.111
292.953
288.796
284.639
280.482
276.325
272.169
268.012
263.856
259.7
255.544
251.388
247.232
243.076
238.92
234.764
230.609
226.453
222.297
218.141
213.985
209.829
205.673
201.517
197.362
193.206
189.05
184.894
180.738
176.582
172.426
168.271
164.115
159.959
155.803
151.647
147.491
143.336
139.18
135.024
130.868
126.712
122.556
118.4
114.245
110.089
105.933
101.777
97.6212
93.4654
89.3095
85.1537
80.9979
76.8421
72.6863
68.5306
64.3749
60.2192
56.0637
51.9084
47.7532
43.5985
39.4443
35.2909
31.1387
26.9884
22.8406
18.6968
14.5577
10.4264
6.29205
2.14452
420.683
414.371
410.142
404.665
399.917
395.083
390.482
385.929
381.472
377.066
372.712
368.395
364.111
359.852
355.614
351.392
347.184
342.986
338.797
334.615
330.439
326.266
322.098
317.932
313.768
309.606
305.446
301.286
297.127
292.969
288.812
284.655
280.498
276.341
272.185
268.029
263.872
259.716
255.56
251.404
247.248
243.092
238.937
234.781
230.625
226.469
222.313
218.157
214.001
209.845
205.69
201.534
197.378
193.222
189.066
184.91
180.754
176.599
172.443
168.287
164.131
159.975
155.819
151.663
147.508
143.352
139.196
135.04
130.884
126.728
122.572
118.417
114.261
110.105
105.949
101.793
97.6374
93.4816
89.3257
85.1699
81.0141
76.8583
72.7025
68.5468
64.3911
60.2354
56.0799
51.9245
47.7694
43.6147
39.4605
35.3071
31.1549
27.0045
22.8567
18.7131
14.574
10.4434
6.30792
2.15796
420.615
414.38
410.163
404.685
399.932
395.096
390.496
385.943
381.486
377.079
372.726
368.409
364.125
359.866
355.627
351.406
347.197
343
338.811
334.629
330.452
326.28
322.111
317.945
313.782
309.62
305.459
301.3
297.141
292.983
288.825
284.668
280.511
276.355
272.198
268.042
263.886
259.73
255.574
251.418
247.262
243.106
238.95
234.794
230.638
226.482
222.326
218.171
214.015
209.859
205.703
201.547
197.391
193.235
189.08
184.924
180.768
176.612
172.456
168.3
164.144
159.989
155.833
151.677
147.521
143.365
139.209
135.054
130.898
126.742
122.586
118.43
114.274
110.118
105.963
101.807
97.6509
93.4951
89.3392
85.1834
81.0276
76.8718
72.716
68.5603
64.4046
60.2489
56.0934
51.938
47.7829
43.6282
39.474
35.3206
31.1684
27.018
22.8702
18.7266
14.5875
10.4575
6.32116
2.16914
420.562
414.388
410.18
404.7
399.944
395.107
390.507
385.954
381.497
377.09
372.736
368.42
364.136
359.877
355.638
351.416
347.208
343.011
338.822
334.639
330.463
326.291
322.122
317.956
313.792
309.631
305.47
301.31
297.152
292.994
288.836
284.679
280.522
276.366
272.209
268.053
263.897
259.741
255.585
251.429
247.273
243.117
238.961
234.805
230.649
226.493
222.337
218.181
214.026
209.87
205.714
201.558
197.402
193.246
189.09
184.934
180.779
176.623
172.467
168.311
164.155
159.999
155.844
151.688
147.532
143.376
139.22
135.064
130.908
126.753
122.597
118.441
114.285
110.129
105.973
101.818
97.6617
93.5059
89.35
85.1942
81.0384
76.8826
72.7268
68.571
64.4153
60.2597
56.1042
51.9488
47.7937
43.639
39.4847
35.3314
31.1792
27.0288
22.881
18.7374
14.5984
10.4688
6.33176
2.17808
420.522
414.393
410.193
404.712
399.953
395.115
390.515
385.962
381.505
377.099
372.745
368.428
364.144
359.885
355.646
351.425
347.216
343.019
338.83
334.648
330.471
326.299
322.13
317.964
313.801
309.639
305.478
301.319
297.16
293.002
288.844
284.687
280.53
276.374
272.217
268.061
263.905
259.749
255.593
251.437
247.281
243.125
238.969
234.813
230.657
226.501
222.345
218.189
214.034
209.878
205.722
201.566
197.41
193.254
189.098
184.943
180.787
176.631
172.475
168.319
164.163
160.007
155.852
151.696
147.54
143.384
139.228
135.072
130.917
126.761
122.605
118.449
114.293
110.137
105.981
101.826
97.6698
93.5139
89.3581
85.2023
81.0465
76.8907
72.7349
68.5791
64.4234
60.2678
56.1123
51.9569
47.8018
43.6471
39.4928
35.3395
31.1872
27.0369
22.8891
18.7455
14.6065
10.4773
6.33971
2.18478
420.496
414.396
410.202
404.72
399.959
395.121
390.521
385.968
381.511
377.104
372.75
368.434
364.149
359.89
355.652
351.43
347.222
343.024
338.835
334.653
330.476
326.304
322.136
317.97
313.806
309.644
305.483
301.324
297.165
293.007
288.85
284.693
280.536
276.379
272.223
268.066
263.91
259.754
255.598
251.442
247.286
243.13
238.974
234.818
230.662
226.507
222.351
218.195
214.039
209.883
205.727
201.571
197.416
193.26
189.104
184.948
180.792
176.636
172.48
168.325
164.169
160.013
155.857
151.701
147.545
143.389
139.234
135.078
130.922
126.766
122.61
118.454
114.299
110.143
105.987
101.831
97.6752
93.5193
89.3635
85.2077
81.0519
76.8961
72.7403
68.5845
64.4288
60.2732
56.1177
51.9623
47.8072
43.6524
39.4982
35.3448
31.1926
27.0423
22.8944
18.751
14.6119
10.483
6.34501
2.18925
420.483
414.397
410.206
404.723
399.962
395.123
390.523
385.97
381.513
377.107
372.753
368.436
364.152
359.893
355.655
351.433
347.224
343.027
338.838
334.656
330.479
326.307
322.138
317.972
313.809
309.647
305.486
301.327
297.168
293.01
288.852
284.695
280.538
276.382
272.225
268.069
263.913
259.757
255.601
251.445
247.289
243.133
238.977
234.821
230.665
226.509
222.353
218.198
214.042
209.886
205.73
201.574
197.418
193.262
189.107
184.951
180.795
176.639
172.483
168.327
164.171
160.016
155.86
151.704
147.548
143.392
139.236
135.08
130.925
126.769
122.613
118.457
114.301
110.145
105.99
101.834
97.6779
93.522
89.3662
85.2104
81.0546
76.8988
72.743
68.5872
64.4315
60.2759
56.1204
51.965
47.8099
43.6551
39.5009
35.3475
31.1953
27.045
22.8971
18.7537
14.6146
10.4858
6.34767
2.19148
420.483
414.397
410.206
404.723
399.962
395.123
390.523
385.97
381.513
377.107
372.753
368.436
364.152
359.893
355.655
351.433
347.224
343.027
338.838
334.656
330.479
326.307
322.138
317.972
313.809
309.647
305.486
301.327
297.168
293.01
288.852
284.695
280.538
276.382
272.225
268.069
263.913
259.757
255.601
251.445
247.289
243.133
238.977
234.821
230.665
226.509
222.353
218.198
214.042
209.886
205.73
201.574
197.418
193.262
189.107
184.951
180.795
176.639
172.483
168.327
164.171
160.016
155.86
151.704
147.548
143.392
139.236
135.08
130.925
126.769
122.613
118.457
114.301
110.145
105.99
101.834
97.6779
93.522
89.3662
85.2104
81.0546
76.8988
72.743
68.5872
64.4315
60.2759
56.1204
51.965
47.8099
43.6551
39.5009
35.3475
31.1953
27.045
22.8971
18.7537
14.6146
10.4858
6.34767
2.19148
420.496
414.396
410.202
404.72
399.959
395.121
390.521
385.968
381.511
377.104
372.75
368.434
364.149
359.89
355.652
351.43
347.222
343.024
338.835
334.653
330.476
326.304
322.136
317.97
313.806
309.644
305.483
301.324
297.165
293.007
288.85
284.693
280.536
276.379
272.223
268.066
263.91
259.754
255.598
251.442
247.286
243.13
238.974
234.818
230.662
226.507
222.351
218.195
214.039
209.883
205.727
201.571
197.416
193.26
189.104
184.948
180.792
176.636
172.48
168.325
164.169
160.013
155.857
151.701
147.545
143.389
139.234
135.078
130.922
126.766
122.61
118.454
114.299
110.143
105.987
101.831
97.6752
93.5193
89.3635
85.2077
81.0519
76.8961
72.7403
68.5845
64.4288
60.2732
56.1177
51.9623
47.8072
43.6525
39.4982
35.3449
31.1927
27.0423
22.8945
18.751
14.6119
10.483
6.34502
2.18925
420.522
414.393
410.193
404.712
399.953
395.115
390.515
385.962
381.505
377.099
372.745
368.428
364.144
359.885
355.646
351.425
347.216
343.019
338.83
334.648
330.471
326.299
322.13
317.964
313.801
309.639
305.478
301.319
297.16
293.002
288.844
284.687
280.53
276.374
272.217
268.061
263.905
259.749
255.593
251.437
247.281
243.125
238.969
234.813
230.657
226.501
222.345
218.189
214.034
209.878
205.722
201.566
197.41
193.254
189.098
184.943
180.787
176.631
172.475
168.319
164.163
160.007
155.852
151.696
147.54
143.384
139.228
135.072
130.917
126.761
122.605
118.449
114.293
110.137
105.981
101.826
97.6698
93.514
89.3581
85.2023
81.0465
76.8907
72.7349
68.5791
64.4234
60.2678
56.1123
51.9569
47.8018
43.6471
39.4928
35.3395
31.1873
27.0369
22.8891
18.7455
14.6065
10.4773
6.33972
2.18478
420.562
414.388
410.18
404.7
399.944
395.107
390.507
385.954
381.497
377.09
372.736
368.42
364.136
359.877
355.638
351.417
347.208
343.01
338.821
334.639
330.463
326.291
322.122
317.956
313.792
309.631
305.47
301.31
297.152
292.994
288.836
284.679
280.522
276.366
272.209
268.053
263.897
259.741
255.585
251.429
247.273
243.117
238.961
234.805
230.649
226.493
222.337
218.181
214.026
209.87
205.714
201.558
197.402
193.246
189.09
184.935
180.779
176.623
172.467
168.311
164.155
159.999
155.844
151.688
147.532
143.376
139.22
135.064
130.908
126.753
122.597
118.441
114.285
110.129
105.973
101.818
97.6617
93.5059
89.35
85.1942
81.0384
76.8826
72.7268
68.571
64.4153
60.2597
56.1042
51.9488
47.7937
43.639
39.4848
35.3314
31.1792
27.0288
22.881
18.7374
14.5984
10.4688
6.33176
2.17809
420.615
414.38
410.163
404.685
399.932
395.096
390.496
385.943
381.486
377.08
372.726
368.409
364.125
359.866
355.627
351.406
347.197
343
338.811
334.629
330.452
326.28
322.111
317.945
313.782
309.62
305.459
301.3
297.141
292.983
288.825
284.668
280.511
276.355
272.198
268.042
263.886
259.73
255.574
251.418
247.262
243.106
238.95
234.794
230.638
226.482
222.326
218.171
214.015
209.859
205.703
201.547
197.391
193.235
189.08
184.924
180.768
176.612
172.456
168.3
164.144
159.989
155.833
151.677
147.521
143.365
139.209
135.053
130.898
126.742
122.586
118.43
114.274
110.118
105.963
101.807
97.6509
93.4951
89.3392
85.1834
81.0276
76.8718
72.716
68.5602
64.4045
60.2489
56.0934
51.938
47.7829
43.6282
39.474
35.3206
31.1684
27.018
22.8702
18.7266
14.5876
10.4575
6.32117
2.16915
420.683
414.371
410.141
404.665
399.917
395.083
390.482
385.929
381.472
377.066
372.712
368.395
364.111
359.852
355.614
351.392
347.184
342.986
338.797
334.615
330.439
326.266
322.098
317.932
313.768
309.606
305.446
301.286
297.127
292.969
288.812
284.655
280.498
276.341
272.185
268.029
263.872
259.716
255.56
251.404
247.248
243.092
238.936
234.781
230.625
226.469
222.313
218.157
214.001
209.845
205.69
201.534
197.378
193.222
189.066
184.91
180.754
176.599
172.443
168.287
164.131
159.975
155.819
151.663
147.508
143.352
139.196
135.04
130.884
126.728
122.572
118.417
114.261
110.105
105.949
101.793
97.6374
93.4816
89.3257
85.1699
81.0141
76.8583
72.7025
68.5467
64.391
60.2354
56.0799
51.9245
47.7694
43.6147
39.4605
35.3071
31.1549
27.0046
22.8567
18.7131
14.574
10.4434
6.30793
2.15797
420.766
414.358
410.115
404.642
399.899
395.067
390.466
385.913
381.456
377.049
372.695
368.379
364.095
359.836
355.598
351.376
347.167
342.97
338.781
334.599
330.422
326.25
322.082
317.916
313.752
309.59
305.429
301.27
297.111
292.953
288.796
284.639
280.482
276.325
272.169
268.012
263.856
259.7
255.544
251.388
247.232
243.076
238.92
234.764
230.609
226.453
222.297
218.141
213.985
209.829
205.673
201.517
197.362
193.206
189.05
184.894
180.738
176.582
172.426
168.271
164.115
159.959
155.803
151.647
147.491
143.335
139.18
135.024
130.868
126.712
122.556
118.4
114.245
110.089
105.933
101.777
97.6212
93.4654
89.3095
85.1537
80.9979
76.8421
72.6863
68.5306
64.3749
60.2192
56.0637
51.9084
47.7532
43.5985
39.4443
35.2909
31.1387
26.9884
22.8406
18.6969
14.5578
10.4265
6.29206
2.14453
420.865
414.341
410.084
404.615
399.877
395.048
390.447
385.894
381.436
377.03
372.676
368.36
364.076
359.817
355.578
351.357
347.149
342.951
338.762
334.58
330.403
326.231
322.063
317.897
313.733
309.571
305.411
301.251
297.092
292.934
288.777
284.62
280.463
276.306
272.15
267.994
263.837
259.681
255.525
251.369
247.213
243.057
238.901
234.746
230.59
226.434
222.278
218.122
213.966
209.81
205.654
201.499
197.343
193.187
189.031
184.875
180.719
176.563
172.408
168.252
164.096
159.94
155.784
151.628
147.472
143.317
139.161
135.005
130.849
126.693
122.537
118.382
114.226
110.07
105.914
101.758
97.6023
93.4465
89.2907
85.1348
80.979
76.8232
72.6674
68.5117
64.356
60.2003
56.0448
51.8895
47.7344
43.5796
39.4254
35.272
31.1199
26.9695
22.8217
18.6779
14.5388
10.4068
6.27357
2.12883
420.982
414.32
410.049
404.585
399.853
395.026
390.425
385.872
381.414
377.008
372.654
368.338
364.054
359.795
355.557
351.335
347.127
342.929
338.74
334.558
330.382
326.21
322.041
317.875
313.712
309.55
305.389
301.229
297.071
292.913
288.755
284.598
280.441
276.285
272.128
267.972
263.816
259.66
255.504
251.348
247.192
243.036
238.88
234.724
230.568
226.412
222.256
218.1
213.945
209.789
205.633
201.477
197.321
193.165
189.009
184.854
180.698
176.542
172.386
168.23
164.074
159.918
155.763
151.607
147.451
143.295
139.139
134.983
130.827
126.672
122.516
118.36
114.204
110.048
105.892
101.737
97.5807
93.4249
89.2691
85.1132
80.9574
76.8016
72.6458
68.4901
64.3344
60.1787
56.0232
51.8679
47.7128
43.558
39.4038
35.2505
31.0983
26.9479
22.8002
18.6563
14.5172
10.3843
6.25245
2.11085
421.118
414.293
410.009
404.551
399.826
395.001
390.4
385.847
381.389
376.983
372.63
368.313
364.029
359.77
355.532
351.311
347.102
342.905
338.716
334.534
330.357
326.185
322.017
317.851
313.687
309.525
305.365
301.205
297.047
292.888
288.731
284.574
280.417
276.26
272.104
267.948
263.792
259.635
255.479
251.323
247.167
243.011
238.856
234.7
230.544
226.388
222.232
218.076
213.92
209.764
205.609
201.453
197.297
193.141
188.985
184.829
180.673
176.518
172.362
168.206
164.05
159.894
155.738
151.582
147.427
143.271
139.115
134.959
130.803
126.647
122.492
118.336
114.18
110.024
105.868
101.712
97.5565
93.4006
89.2448
85.089
80.9331
76.7773
72.6215
68.4658
64.3101
60.1545
55.9989
51.8436
47.6885
43.5338
39.3796
35.2262
31.074
26.9237
22.7759
18.632
14.4928
10.3592
6.22871
2.09057
421.275
414.26
409.963
404.514
399.795
394.973
390.372
385.82
381.362
376.956
372.602
368.286
364.002
359.743
355.505
351.283
347.075
342.878
338.689
334.507
330.33
326.158
321.99
317.824
313.66
309.498
305.338
301.178
297.02
292.862
288.704
284.547
280.39
276.233
272.077
267.921
263.765
259.608
255.452
251.296
247.14
242.984
238.829
234.673
230.517
226.361
222.205
218.049
213.893
209.737
205.582
201.426
197.27
193.114
188.958
184.802
180.646
176.491
172.335
168.179
164.023
159.867
155.711
151.555
147.4
143.244
139.088
134.932
130.776
126.62
122.465
118.309
114.153
109.997
105.841
101.685
97.5295
93.3736
89.2178
85.062
80.9062
76.7503
72.5946
68.4388
64.2831
60.1275
55.972
51.8166
47.6615
43.5068
39.3526
35.1992
31.0471
26.8967
22.749
18.605
14.4658
10.3314
6.20237
2.06798
421.454
414.218
409.913
404.473
399.762
394.943
390.341
385.789
381.331
376.925
372.572
368.256
363.972
359.713
355.475
351.254
347.045
342.848
338.659
334.477
330.301
326.129
321.96
317.794
313.631
309.469
305.308
301.149
296.99
292.832
288.674
284.517
280.36
276.204
272.047
267.891
263.735
259.579
255.423
251.267
247.111
242.955
238.799
234.643
230.487
226.331
222.175
218.019
213.864
209.708
205.552
201.396
197.24
193.084
188.928
184.773
180.617
176.461
172.305
168.149
163.993
159.837
155.682
151.526
147.37
143.214
139.058
134.902
130.747
126.591
122.435
118.279
114.123
109.967
105.811
101.656
97.4998
93.344
89.1881
85.0323
80.8765
76.7207
72.5649
68.4091
64.2535
60.0978
55.9423
51.787
47.6319
43.4771
39.3229
35.1696
31.0174
26.8671
22.7194
18.5753
14.436
10.3009
6.17343
2.04304
421.66
414.167
409.858
404.43
399.725
394.909
390.307
385.756
381.298
376.892
372.539
368.223
363.939
359.68
355.442
351.221
347.013
342.816
338.627
334.445
330.268
326.096
321.928
317.762
313.598
309.436
305.276
301.116
296.958
292.8
288.642
284.485
280.328
276.171
272.015
267.859
263.703
259.546
255.39
251.234
247.078
242.923
238.767
234.611
230.455
226.299
222.143
217.987
213.831
209.675
205.52
201.364
197.208
193.052
188.896
184.74
180.584
176.429
172.273
168.117
163.961
159.805
155.649
151.493
147.338
143.182
139.026
134.87
130.714
126.558
122.403
118.247
114.091
109.935
105.779
101.623
97.4675
93.3117
89.1558
85
80.8442
76.6884
72.5326
68.3769
64.2212
60.0655
55.91
51.7547
47.5996
43.4448
39.2907
35.1373
30.9852
26.8348
22.6871
18.543
14.4037
10.2678
6.14197
2.0158
421.895
414.103
409.799
404.384
399.685
394.873
390.271
385.72
381.262
376.856
372.503
368.187
363.904
359.645
355.407
351.186
346.978
342.781
338.592
334.41
330.234
326.062
321.893
317.727
313.564
309.402
305.241
301.082
296.923
292.765
288.607
284.45
280.293
276.137
271.98
267.824
263.668
259.512
255.356
251.2
247.044
242.888
238.732
234.576
230.42
226.264
222.108
217.953
213.797
209.641
205.485
201.329
197.173
193.017
188.862
184.706
180.55
176.394
172.238
168.082
163.926
159.771
155.615
151.459
147.303
143.147
138.991
134.835
130.68
126.524
122.368
118.212
114.056
109.9
105.745
101.589
97.4328
93.277
89.1212
84.9653
80.8095
76.6537
72.4979
68.3422
64.1865
60.0309
55.8753
51.72
47.5649
43.4102
39.256
35.1027
30.9505
26.8002
22.6525
18.5083
14.3689
10.2325
6.10821
1.98639
422.166
414.026
409.736
404.336
399.642
394.834
390.232
385.681
381.223
376.818
372.465
368.15
363.866
359.608
355.37
351.149
346.941
342.744
338.555
334.373
330.197
326.025
321.856
317.69
313.527
309.365
305.204
301.045
296.886
292.728
288.571
284.414
280.257
276.1
271.944
267.787
263.631
259.475
255.319
251.163
247.007
242.851
238.695
234.539
230.383
226.228
222.072
217.916
213.76
209.604
205.448
201.292
197.137
192.981
188.825
184.669
180.513
176.357
172.201
168.046
163.89
159.734
155.578
151.422
147.266
143.11
138.955
134.799
130.643
126.487
122.331
118.175
114.02
109.864
105.708
101.552
97.3962
93.2403
89.0845
84.9287
80.7729
76.617
72.4613
68.3055
64.1498
59.9942
55.8387
51.6834
47.5282
43.3735
39.2194
35.066
30.9139
26.7636
22.6159
18.4716
14.3322
10.1952
6.07237
1.95498
422.471
413.93
409.669
404.287
399.597
394.793
390.19
385.641
381.183
376.779
372.426
368.11
363.827
359.569
355.332
351.11
346.903
342.705
338.517
334.335
330.158
325.986
321.818
317.652
313.488
309.327
305.166
301.007
296.848
292.69
288.532
284.375
280.218
276.062
271.905
267.749
263.593
259.437
255.281
251.125
246.969
242.813
238.657
234.501
230.345
226.189
222.033
217.877
213.722
209.566
205.41
201.254
197.098
192.942
188.786
184.631
180.475
176.319
172.163
168.007
163.851
159.695
155.54
151.384
147.228
143.072
138.916
134.76
130.605
126.449
122.293
118.137
113.981
109.825
105.669
101.514
97.3578
93.202
89.0461
84.8903
80.7345
76.5787
72.4229
68.2671
64.1115
59.9558
55.8003
51.645
47.4899
43.3352
39.181
35.0277
30.8756
26.7253
22.5776
18.4333
14.2938
10.1564
6.03465
1.92171
422.81
413.82
409.605
404.24
399.554
394.754
390.151
385.603
381.145
376.741
372.388
368.073
363.79
359.532
355.295
351.073
346.866
342.669
338.48
334.298
330.122
325.95
321.781
317.616
313.452
309.29
305.13
300.97
296.811
292.653
288.496
284.339
280.182
276.025
271.869
267.713
263.556
259.4
255.244
251.088
246.932
242.776
238.62
234.465
230.309
226.153
221.997
217.841
213.685
209.529
205.374
201.218
197.062
192.906
188.75
184.594
180.438
176.283
172.127
167.971
163.815
159.659
155.503
151.347
147.192
143.036
138.88
134.724
130.568
126.412
122.256
118.101
113.945
109.789
105.633
101.477
97.3214
93.1656
89.0097
84.8539
80.6981
76.5423
72.3865
68.2308
64.0751
59.9194
55.7639
51.6086
47.4535
43.2988
39.1446
34.9913
30.8392
26.689
22.5413
18.397
14.2574
10.1201
5.99929