/*--------------------------------*- C++ -*----------------------------------*\
| =========                 |                                                 |
| \\      /  F ield         | OpenFOAM: The Open Source CFD Toolbox           |
|  \\    /   O peration     | Version:  v1906                                 |
|   \\  /    A nd           | Web:      www.OpenFOAM.com                      |
|    \\/     M anipulation  |                                                 |
\*---------------------------------------------------------------------------*/
FoamFile
{
    version     2.0;
    format      ascii;
    class       volScalarField;
    location    "1.5";
    object      p;
}
// * * * * * * * * * * * * * * * * * * * * * * * * * * * * * * * * * * * * * //

dimensions      [0 2 -2 0 0 0 0];


internalField   nonuniform List<scalar> 
4000
(
627.467
600.684
595.091
587.32
580.596
573.602
566.878
560.226
553.715
547.289
540.945
534.661
528.428
522.234
516.073
509.939
503.826
497.729
491.647
485.575
479.512
473.456
467.406
461.36
455.318
449.278
443.241
437.205
431.171
425.138
419.105
413.073
407.042
401.011
394.98
388.949
382.919
376.889
370.858
364.828
358.798
352.768
346.738
340.708
334.678
328.648
322.618
316.589
310.559
304.529
298.499
292.469
286.439
280.409
274.379
268.349
262.32
256.29
250.26
244.23
238.2
232.17
226.14
220.11
214.08
208.051
202.021
195.991
189.961
183.931
177.901
171.871
165.841
159.811
153.781
147.751
141.722
135.692
129.662
123.632
117.602
111.572
105.542
99.5124
93.4827
87.453
81.4234
75.3941
69.3651
63.3365
57.3087
51.2819
45.2567
39.2338
33.214
27.1972
21.1857
15.1738
9.20069
3.20484
622.074
600.738
594.957
587.048
580.309
573.308
566.586
559.934
553.422
546.996
540.651
534.366
528.132
521.939
515.777
509.643
503.529
497.433
491.35
485.278
479.215
473.159
467.109
461.063
455.021
448.981
442.944
436.908
430.874
424.84
418.808
412.776
406.744
400.713
394.683
388.652
382.622
376.591
370.561
364.531
358.501
352.471
346.441
340.411
334.381
328.351
322.321
316.291
310.261
304.231
298.201
292.172
286.142
280.112
274.082
268.052
262.022
255.992
249.962
243.933
237.903
231.873
225.843
219.813
213.783
207.753
201.723
195.693
189.663
183.634
177.604
171.574
165.544
159.514
153.484
147.454
141.424
135.394
129.364
123.335
117.305
111.275
105.245
99.2151
93.1853
87.1556
81.1261
75.0968
69.0677
63.0392
57.0113
50.9846
44.9594
38.9364
32.9166
26.8999
20.8889
14.8784
8.90835
2.92892
618.565
600.762
594.875
586.874
580.128
573.115
566.393
559.739
553.227
546.799
540.453
534.168
527.934
521.739
515.578
509.443
503.329
497.232
491.149
485.077
479.014
472.958
466.908
460.862
454.82
448.78
442.743
436.707
430.673
424.639
418.607
412.575
406.543
400.512
394.482
388.451
382.421
376.39
370.36
364.33
358.3
352.27
346.24
340.21
334.18
328.15
322.12
316.09
310.06
304.03
298
291.971
285.941
279.911
273.881
267.851
261.821
255.791
249.761
243.732
237.702
231.672
225.642
219.612
213.582
207.552
201.522
195.492
189.462
183.433
177.403
171.373
165.343
159.313
153.283
147.253
141.223
135.193
129.163
123.134
117.104
111.074
105.044
99.0141
92.9843
86.9547
80.9251
74.8958
68.8667
62.8382
56.8103
50.7836
44.7584
38.7354
32.7155
26.6989
20.6884
14.6788
8.71193
2.74431
616.663
600.883
594.885
586.847
580.092
573.067
566.344
559.688
553.175
546.746
540.4
534.114
527.879
521.684
515.522
509.387
503.273
497.176
491.093
485.021
478.958
472.902
466.851
460.805
454.763
448.723
442.686
436.65
430.616
424.582
418.55
412.518
406.487
400.455
394.425
388.394
382.364
376.333
370.303
364.273
358.243
352.213
346.183
340.153
334.123
328.093
322.063
316.033
310.003
303.973
297.944
291.914
285.884
279.854
273.824
267.794
261.764
255.734
249.704
243.675
237.645
231.615
225.585
219.555
213.525
207.495
201.465
195.435
189.406
183.376
177.346
171.316
165.286
159.256
153.226
147.196
141.166
135.136
129.106
123.077
117.047
111.017
104.987
98.9571
92.9274
86.8977
80.8682
74.8388
68.8098
62.7812
56.7534
50.7266
44.7013
38.6783
32.6585
26.6419
20.6317
14.622
8.65533
2.68951
615.367
601.055
594.96
586.906
580.137
573.101
566.376
559.717
553.203
546.774
540.427
534.14
527.905
521.71
515.548
509.412
503.298
497.201
491.117
485.045
478.982
472.926
466.875
460.829
454.787
448.747
442.71
436.674
430.64
424.606
418.574
412.542
406.511
400.48
394.449
388.418
382.388
376.357
370.327
364.297
358.267
352.237
346.207
340.177
334.147
328.117
322.087
316.057
310.027
303.997
297.968
291.938
285.908
279.878
273.848
267.818
261.788
255.758
249.729
243.699
237.669
231.639
225.609
219.579
213.549
207.519
201.489
195.459
189.43
183.4
177.37
171.34
165.31
159.28
153.25
147.22
141.19
135.16
129.131
123.101
117.071
111.041
105.011
98.9812
92.9514
86.9217
80.8922
74.8628
68.8338
62.8052
56.7774
50.7506
44.7253
38.7023
32.6825
26.666
20.6561
14.6461
8.67772
2.70774
614.32
601.219
595.061
587.001
580.212
573.165
566.439
559.777
553.263
546.832
540.485
534.198
527.962
521.767
515.604
509.468
503.354
497.257
491.173
485.101
479.038
472.982
466.931
460.885
454.843
448.803
442.766
436.73
430.695
424.662
418.629
412.598
406.566
400.535
394.504
388.474
382.443
376.413
370.383
364.353
358.323
352.293
346.263
340.233
334.203
328.173
322.143
316.113
310.083
304.053
298.023
291.993
285.963
279.933
273.904
267.874
261.844
255.814
249.784
243.754
237.724
231.694
225.665
219.635
213.605
207.575
201.545
195.515
189.485
183.455
177.425
171.395
165.365
159.336
153.306
147.276
141.246
135.216
129.186
123.156
117.126
111.096
105.067
99.0367
93.007
86.9773
80.9477
74.9184
68.8893
62.8607
56.8329
50.806
44.7808
38.7577
32.7379
26.7217
20.7117
14.7022
8.73049
2.75434
613.45
601.353
595.168
587.107
580.296
573.238
566.51
559.846
553.332
546.901
540.553
534.265
528.029
521.834
515.671
509.535
503.42
497.323
491.239
485.167
479.104
473.048
466.997
460.951
454.908
448.869
442.831
436.796
430.761
424.728
418.695
412.663
406.632
400.601
394.57
388.539
382.509
376.479
370.449
364.418
358.388
352.358
346.328
340.298
334.268
328.238
322.208
316.179
310.149
304.119
298.089
292.059
286.029
279.999
273.969
267.939
261.91
255.88
249.85
243.82
237.79
231.76
225.73
219.7
213.67
207.641
201.611
195.581
189.551
183.521
177.491
171.461
165.431
159.401
153.371
147.342
141.312
135.282
129.252
123.222
117.192
111.162
105.132
99.1024
93.0727
87.043
81.0134
74.9841
68.955
62.9264
56.8985
50.8717
44.8464
38.8234
32.8036
26.7875
20.7776
14.7689
8.79252
2.80974
612.722
601.457
595.269
587.215
580.381
573.313
566.582
559.917
553.403
546.971
540.623
534.335
528.098
521.902
515.739
509.603
503.488
497.391
491.307
485.235
479.171
473.115
467.065
461.018
454.976
448.936
442.899
436.863
430.829
424.795
418.763
412.731
406.699
400.668
394.637
388.607
382.577
376.546
370.516
364.486
358.456
352.426
346.396
340.366
334.336
328.306
322.276
316.246
310.216
304.186
298.156
292.126
286.097
280.067
274.037
268.007
261.977
255.947
249.917
243.887
237.858
231.828
225.798
219.768
213.738
207.708
201.678
195.648
189.618
183.588
177.559
171.529
165.499
159.469
153.439
147.409
141.379
135.349
129.319
123.289
117.259
111.23
105.2
99.1699
93.1402
87.1105
81.0809
75.0516
69.0225
62.9939
56.966
50.9392
44.9138
38.8908
32.871
26.8552
20.8455
14.8377
8.85581
2.86643
612.104
601.535
595.364
587.32
580.462
573.385
566.651
559.985
553.47
547.038
540.69
534.401
528.165
521.968
515.805
509.669
503.554
497.457
491.373
485.3
479.237
473.181
467.13
461.084
455.041
449.002
442.964
436.928
430.894
424.861
418.828
412.796
406.765
400.734
394.703
388.672
382.642
376.612
370.581
364.551
358.521
352.491
346.461
340.431
334.401
328.371
322.341
316.311
310.282
304.252
298.222
292.192
286.162
280.132
274.102
268.072
262.042
256.013
249.983
243.953
237.923
231.893
225.863
219.833
213.803
207.773
201.743
195.714
189.684
183.654
177.624
171.594
165.564
159.534
153.504
147.474
141.444
135.415
129.385
123.355
117.325
111.295
105.265
99.2353
93.2055
87.1758
81.1463
75.1169
69.0879
63.0593
57.0313
51.0045
44.9791
38.9561
32.9363
26.9208
20.9111
14.9046
8.91682
2.92113
611.576
601.589
595.449
587.419
580.538
573.452
566.715
560.048
553.533
547.101
540.752
534.464
528.227
522.031
515.867
509.731
503.616
497.518
491.434
485.362
479.298
473.242
467.191
461.145
455.103
449.063
443.025
436.99
430.955
424.922
418.889
412.857
406.826
400.795
394.764
388.734
382.703
376.673
370.643
364.613
358.582
352.552
346.522
340.492
334.462
328.433
322.403
316.373
310.343
304.313
298.283
292.253
286.223
280.193
274.163
268.134
262.104
256.074
250.044
244.014
237.984
231.954
225.924
219.894
213.865
207.835
201.805
195.775
189.745
183.715
177.685
171.655
165.625
159.595
153.566
147.536
141.506
135.476
129.446
123.416
117.386
111.356
105.326
99.2965
93.2668
87.2371
81.2075
75.1782
69.1491
63.1205
57.0926
51.0657
45.0403
39.0173
32.9975
26.9823
20.9727
14.9677
8.97383
2.97225
611.125
601.626
595.524
587.512
580.608
573.513
566.774
560.106
553.591
547.158
540.81
534.521
528.284
522.087
515.924
509.787
503.672
497.575
491.491
485.418
479.355
473.298
467.248
461.202
455.159
449.119
443.082
437.046
431.012
424.978
418.946
412.914
406.882
400.851
394.82
388.79
382.759
376.729
370.699
364.669
358.639
352.609
346.579
340.549
334.519
328.489
322.459
316.429
310.399
304.369
298.339
292.309
286.279
280.25
274.22
268.19
262.16
256.13
250.1
244.07
238.04
232.011
225.981
219.951
213.921
207.891
201.861
195.831
189.801
183.771
177.741
171.712
165.682
159.652
153.622
147.592
141.562
135.532
129.502
123.472
117.442
111.413
105.383
99.3528
93.323
87.2934
81.2638
75.2344
69.2054
63.1767
57.1488
51.1219
45.0966
39.0736
33.0538
27.0389
21.0294
15.026
9.02606
3.01908
610.739
601.648
595.59
587.596
580.671
573.568
566.826
560.158
553.643
547.21
540.862
534.573
528.336
522.139
515.976
509.839
503.724
497.626
491.542
485.469
479.406
473.349
467.299
461.252
455.21
449.17
443.133
437.097
431.062
425.029
418.996
412.965
406.933
400.902
394.871
388.841
382.81
376.78
370.75
364.72
358.69
352.66
346.63
340.6
334.57
328.54
322.51
316.48
310.45
304.42
298.39
292.36
286.33
280.3
274.271
268.241
262.211
256.181
250.151
244.121
238.091
232.061
226.032
220.002
213.972
207.942
201.912
195.882
189.852
183.822
177.792
171.762
165.733
159.703
153.673
147.643
141.613
135.583
129.553
123.523
117.493
111.463
105.434
99.4037
93.3739
87.3442
81.3147
75.2853
69.2562
63.2276
57.1997
51.1728
45.1474
39.1244
33.1046
27.09
21.0806
15.0789
9.0732
3.06134
610.412
601.661
595.647
587.671
580.727
573.618
566.873
560.204
553.69
547.257
540.908
534.619
528.382
522.185
516.021
509.884
503.769
497.671
491.587
485.515
479.451
473.395
467.344
461.298
455.255
449.215
443.178
437.142
431.108
425.074
419.042
413.01
406.978
400.947
394.917
388.886
382.856
376.825
370.795
364.765
358.735
352.705
346.675
340.645
334.615
328.585
322.555
316.525
310.495
304.465
298.435
292.406
286.376
280.346
274.316
268.286
262.256
256.226
250.196
244.167
238.137
232.107
226.077
220.047
214.017
207.987
201.957
195.927
189.897
183.868
177.838
171.808
165.778
159.748
153.718
147.688
141.658
135.628
129.598
123.569
117.539
111.509
105.479
99.4491
93.4193
87.3896
81.36
75.3307
69.3016
63.273
57.245
51.2181
45.1927
39.1698
33.15
27.1357
21.1263
15.1263
9.11514
3.09893
610.137
601.666
595.695
587.738
580.777
573.661
566.914
560.244
553.73
547.297
540.948
534.659
528.422
522.225
516.061
509.924
503.809
497.711
491.627
485.555
479.491
473.435
467.384
461.338
455.295
449.255
443.218
437.182
431.147
425.114
419.082
413.05
407.018
400.987
394.956
388.926
382.895
376.865
370.835
364.805
358.775
352.745
346.715
340.685
334.655
328.625
322.595
316.565
310.535
304.505
298.475
292.445
286.415
280.386
274.356
268.326
262.296
256.266
250.236
244.206
238.176
232.146
226.117
220.087
214.057
208.027
201.997
195.967
189.937
183.907
177.877
171.848
165.818
159.788
153.758
147.728
141.698
135.668
129.638
123.608
117.578
111.548
105.519
99.4888
93.459
87.4293
81.3997
75.3704
69.3413
63.3127
57.2847
51.2578
45.2324
39.2095
33.1897
27.1757
21.1663
15.168
9.15184
3.13183
609.91
601.666
595.735
587.795
580.819
573.698
566.948
560.278
553.764
547.332
540.983
534.694
528.456
522.259
516.096
509.959
503.843
497.745
491.661
485.589
479.525
473.469
467.418
461.372
455.329
449.289
443.252
437.216
431.182
425.148
419.116
413.084
407.052
401.021
394.99
388.96
382.929
376.899
370.869
364.839
358.809
352.779
346.749
340.719
334.689
328.659
322.629
316.599
310.569
304.539
298.509
292.479
286.45
280.42
274.39
268.36
262.33
256.3
250.27
244.24
238.21
232.181
226.151
220.121
214.091
208.061
202.031
196.001
189.971
183.941
177.911
171.882
165.852
159.822
153.792
147.762
141.732
135.702
129.672
123.642
117.612
111.583
105.553
99.5228
93.4931
87.4634
81.4338
75.4044
69.3754
63.3467
57.3188
51.2919
45.2665
39.2435
33.2237
27.21
21.2007
15.204
9.18329
3.16001
609.726
601.664
595.768
587.842
580.855
573.729
566.977
560.307
553.793
547.36
541.012
534.722
528.485
522.288
516.124
509.987
503.872
497.774
491.69
485.617
479.554
473.497
467.446
461.4
455.357
449.318
443.28
437.244
431.21
425.177
419.144
413.112
407.081
401.05
395.019
388.988
382.958
376.928
370.897
364.867
358.837
352.807
346.777
340.747
334.717
328.687
322.657
316.627
310.597
304.568
298.538
292.508
286.478
280.448
274.418
268.388
262.358
256.328
250.299
244.269
238.239
232.209
226.179
220.149
214.119
208.089
202.059
196.03
190
183.97
177.94
171.91
165.88
159.85
153.82
147.79
141.76
135.731
129.701
123.671
117.641
111.611
105.581
99.5512
93.5215
87.4918
81.4622
75.4328
69.4038
63.3751
57.3472
51.3203
45.2949
39.2719
33.2521
27.2386
21.2294
15.234
9.20949
3.18349
609.582
601.66
595.794
587.881
580.883
573.754
567
560.33
553.816
547.383
541.035
534.745
528.508
522.311
516.147
510.01
503.895
497.797
491.713
485.64
479.576
473.52
467.469
461.423
455.38
449.34
443.303
437.267
431.233
425.199
419.167
413.135
407.103
401.072
395.042
389.011
382.981
376.95
370.92
364.89
358.86
352.83
346.8
340.77
334.74
328.71
322.68
316.65
310.62
304.59
298.56
292.531
286.501
280.471
274.441
268.411
262.381
256.351
250.321
244.291
238.262
232.232
226.202
220.172
214.142
208.112
202.082
196.052
190.022
183.993
177.963
171.933
165.903
159.873
153.843
147.813
141.783
135.753
129.723
123.693
117.664
111.634
105.604
99.574
93.5442
87.5145
81.4849
75.4555
69.4265
63.3979
57.3699
51.343
45.3176
39.2946
33.2748
27.2615
21.2523
15.2581
9.23045
3.20227
609.477
601.656
595.813
587.909
580.905
573.772
567.018
560.347
553.833
547.401
541.052
534.762
528.525
522.328
516.164
510.027
503.912
497.814
491.73
485.657
479.593
473.537
467.486
461.44
455.397
449.357
443.32
437.284
431.25
425.216
419.184
413.152
407.12
401.089
395.059
389.028
382.998
376.967
370.937
364.907
358.877
352.847
346.817
340.787
334.757
328.727
322.697
316.667
310.637
304.607
298.577
292.548
286.518
280.488
274.458
268.428
262.398
256.368
250.338
244.308
238.279
232.249
226.219
220.189
214.159
208.129
202.099
196.069
190.039
184.01
177.98
171.95
165.92
159.89
153.86
147.83
141.8
135.77
129.74
123.71
117.681
111.651
105.621
99.591
93.5612
87.5315
81.502
75.4726
69.4435
63.4149
57.3869
51.36
45.3346
39.3117
33.2918
27.2787
21.2695
15.2762
9.24616
3.21635
609.407
601.654
595.826
587.929
580.919
573.784
567.029
560.358
553.845
547.412
541.063
534.774
528.536
522.339
516.176
510.039
503.923
497.825
491.741
485.668
479.605
473.548
467.497
461.451
455.409
449.369
443.331
437.295
431.261
425.228
419.195
413.163
407.132
401.101
395.07
389.039
383.009
376.979
370.948
364.918
358.888
352.858
346.828
340.798
334.768
328.738
322.708
316.679
310.649
304.619
298.589
292.559
286.529
280.499
274.469
268.439
262.409
256.38
250.35
244.32
238.29
232.26
226.23
220.2
214.17
208.141
202.111
196.081
190.051
184.021
177.991
171.961
165.931
159.901
153.871
147.841
141.812
135.782
129.752
123.722
117.692
111.662
105.632
99.6023
93.5726
87.5429
81.5133
75.4839
69.4549
63.4263
57.3983
51.3714
45.3459
39.323
33.3032
27.2901
21.281
15.2882
9.25663
3.22574
609.373
601.652
595.832
587.938
580.926
573.791
567.035
560.364
553.851
547.418
541.069
534.78
528.542
522.345
516.181
510.044
503.929
497.831
491.747
485.674
479.61
473.554
467.503
461.457
455.414
449.374
443.337
437.301
431.267
425.233
419.201
413.169
407.137
401.106
395.076
389.045
383.015
376.984
370.954
364.924
358.894
352.864
346.834
340.804
334.774
328.744
322.714
316.684
310.654
304.624
298.594
292.565
286.535
280.505
274.475
268.445
262.415
256.385
250.355
244.325
238.296
232.266
226.236
220.206
214.176
208.146
202.116
196.086
190.057
184.027
177.997
171.967
165.937
159.907
153.877
147.847
141.817
135.787
129.757
123.728
117.698
111.668
105.638
99.608
93.5783
87.5486
81.519
75.4896
69.4606
63.4319
57.404
51.3771
45.3516
39.3287
33.3089
27.2959
21.2867
15.2943
9.26187
3.23043
609.373
601.652
595.832
587.938
580.926
573.791
567.035
560.364
553.851
547.418
541.069
534.78
528.542
522.345
516.181
510.044
503.929
497.831
491.747
485.674
479.61
473.554
467.503
461.457
455.414
449.374
443.337
437.301
431.267
425.233
419.201
413.169
407.137
401.106
395.076
389.045
383.015
376.984
370.954
364.924
358.894
352.864
346.834
340.804
334.774
328.744
322.714
316.684
310.654
304.624
298.594
292.565
286.535
280.505
274.475
268.445
262.415
256.385
250.355
244.325
238.296
232.266
226.236
220.206
214.176
208.146
202.116
196.086
190.057
184.027
177.997
171.967
165.937
159.907
153.877
147.847
141.817
135.787
129.757
123.728
117.698
111.668
105.638
99.608
93.5783
87.5486
81.519
75.4896
69.4606
63.4319
57.404
51.3771
45.3516
39.3287
33.3089
27.2959
21.2867
15.2943
9.26187
3.23043
609.407
601.654
595.826
587.929
580.919
573.784
567.029
560.358
553.845
547.412
541.063
534.774
528.536
522.339
516.176
510.039
503.923
497.825
491.741
485.669
479.605
473.548
467.497
461.451
455.409
449.369
443.331
437.295
431.261
425.228
419.195
413.163
407.132
401.101
395.07
389.039
383.009
376.979
370.948
364.918
358.888
352.858
346.828
340.798
334.768
328.738
322.708
316.679
310.649
304.619
298.589
292.559
286.529
280.499
274.469
268.439
262.409
256.38
250.35
244.32
238.29
232.26
226.23
220.2
214.17
208.141
202.111
196.081
190.051
184.021
177.991
171.961
165.931
159.901
153.871
147.841
141.812
135.782
129.752
123.722
117.692
111.662
105.632
99.6023
93.5726
87.5429
81.5133
75.4839
69.4549
63.4263
57.3983
51.3714
45.346
39.323
33.3032
27.2901
21.281
15.2882
9.25664
3.22574
609.477
601.657
595.813
587.909
580.905
573.772
567.018
560.347
553.833
547.401
541.052
534.762
528.525
522.328
516.164
510.027
503.912
497.814
491.73
485.657
479.593
473.537
467.486
461.44
455.397
449.357
443.32
437.284
431.25
425.216
419.184
413.152
407.12
401.089
395.059
389.028
382.998
376.967
370.937
364.907
358.877
352.847
346.817
340.787
334.757
328.727
322.697
316.667
310.637
304.607
298.577
292.548
286.518
280.488
274.458
268.428
262.398
256.368
250.338
244.308
238.279
232.249
226.219
220.189
214.159
208.129
202.099
196.069
190.039
184.01
177.98
171.95
165.92
159.89
153.86
147.83
141.8
135.77
129.74
123.71
117.681
111.651
105.621
99.591
93.5612
87.5315
81.502
75.4726
69.4435
63.4149
57.3869
51.36
45.3346
39.3117
33.2918
27.2787
21.2695
15.2762
9.24617
3.21635
609.582
601.66
595.794
587.881
580.883
573.754
567
560.33
553.816
547.383
541.035
534.745
528.508
522.311
516.147
510.01
503.895
497.797
491.713
485.64
479.576
473.52
467.469
461.423
455.38
449.34
443.303
437.267
431.233
425.199
419.167
413.135
407.103
401.072
395.042
389.011
382.981
376.95
370.92
364.89
358.86
352.83
346.8
340.77
334.74
328.71
322.68
316.65
310.62
304.59
298.56
292.531
286.501
280.471
274.441
268.411
262.381
256.351
250.321
244.291
238.262
232.232
226.202
220.172
214.142
208.112
202.082
196.052
190.022
183.993
177.963
171.933
165.903
159.873
153.843
147.813
141.783
135.753
129.723
123.693
117.664
111.634
105.604
99.5739
93.5442
87.5145
81.4849
75.4555
69.4265
63.3979
57.3699
51.343
45.3176
39.2947
33.2748
27.2615
21.2523
15.2581
9.23046
3.20227
609.726
601.664
595.769
587.843
580.855
573.729
566.977
560.307
553.793
547.36
541.012
534.722
528.485
522.288
516.124
509.987
503.872
497.774
491.69
485.617
479.554
473.497
467.446
461.4
455.357
449.318
443.28
437.244
431.21
425.177
419.144
413.112
407.081
401.05
395.019
388.988
382.958
376.928
370.897
364.867
358.837
352.807
346.777
340.747
334.717
328.687
322.657
316.627
310.598
304.568
298.538
292.508
286.478
280.448
274.418
268.388
262.358
256.328
250.299
244.269
238.239
232.209
226.179
220.149
214.119
208.089
202.06
196.03
190
183.97
177.94
171.91
165.88
159.85
153.82
147.79
141.76
135.731
129.701
123.671
117.641
111.611
105.581
99.5512
93.5214
87.4917
81.4622
75.4328
69.4038
63.3751
57.3472
51.3203
45.2949
39.2719
33.2521
27.2386
21.2294
15.234
9.2095
3.1835
609.91
601.666
595.736
587.795
580.819
573.698
566.948
560.278
553.764
547.331
540.983
534.693
528.456
522.259
516.096
509.959
503.843
497.745
491.662
485.589
479.525
473.469
467.418
461.372
455.329
449.289
443.252
437.216
431.181
425.148
419.116
413.084
407.052
401.021
394.99
388.96
382.929
376.899
370.869
364.839
358.809
352.779
346.749
340.719
334.689
328.659
322.629
316.599
310.569
304.539
298.509
292.479
286.45
280.42
274.39
268.36
262.33
256.3
250.27
244.24
238.21
232.181
226.151
220.121
214.091
208.061
202.031
196.001
189.971
183.941
177.912
171.882
165.852
159.822
153.792
147.762
141.732
135.702
129.672
123.642
117.612
111.583
105.553
99.5228
93.493
87.4633
81.4338
75.4044
69.3754
63.3467
57.3188
51.2919
45.2665
39.2436
33.2237
27.21
21.2007
15.204
9.18331
3.16002
610.137
601.666
595.695
587.738
580.777
573.661
566.914
560.244
553.73
547.297
540.948
534.659
528.422
522.225
516.061
509.924
503.809
497.711
491.627
485.555
479.491
473.435
467.384
461.338
455.295
449.255
443.218
437.182
431.147
425.114
419.082
413.05
407.018
400.987
394.956
388.926
382.895
376.865
370.835
364.805
358.775
352.745
346.715
340.685
334.655
328.625
322.595
316.565
310.535
304.505
298.475
292.445
286.415
280.386
274.356
268.326
262.296
256.266
250.236
244.206
238.176
232.146
226.117
220.087
214.057
208.027
201.997
195.967
189.937
183.907
177.877
171.848
165.818
159.788
153.758
147.728
141.698
135.668
129.638
123.608
117.578
111.548
105.519
99.4887
93.459
87.4293
81.3997
75.3704
69.3413
63.3127
57.2847
51.2579
45.2325
39.2095
33.1897
27.1757
21.1664
15.1681
9.15186
3.13183
610.412
601.661
595.647
587.671
580.727
573.618
566.873
560.204
553.689
547.257
540.908
534.619
528.381
522.185
516.021
509.884
503.769
497.671
491.588
485.515
479.451
473.395
467.344
461.298
455.255
449.215
443.178
437.142
431.108
425.074
419.042
413.01
406.978
400.947
394.917
388.886
382.856
376.825
370.795
364.765
358.735
352.705
346.675
340.645
334.615
328.585
322.555
316.525
310.495
304.465
298.436
292.406
286.376
280.346
274.316
268.286
262.256
256.226
250.196
244.166
238.137
232.107
226.077
220.047
214.017
207.987
201.957
195.927
189.898
183.868
177.838
171.808
165.778
159.748
153.718
147.688
141.658
135.628
129.598
123.569
117.539
111.509
105.479
99.449
93.4192
87.3895
81.36
75.3306
69.3016
63.273
57.245
51.2182
45.1928
39.1698
33.15
27.1357
21.1263
15.1264
9.11516
3.09894
610.739
601.648
595.59
587.596
580.671
573.568
566.826
560.158
553.643
547.21
540.862
534.573
528.336
522.139
515.975
509.839
503.724
497.626
491.542
485.469
479.406
473.349
467.299
461.252
455.21
449.17
443.133
437.097
431.062
425.029
418.996
412.965
406.933
400.902
394.871
388.841
382.81
376.78
370.75
364.72
358.69
352.66
346.63
340.6
334.57
328.54
322.51
316.48
310.45
304.42
298.39
292.36
286.33
280.3
274.271
268.241
262.211
256.181
250.151
244.121
238.091
232.061
226.031
220.002
213.972
207.942
201.912
195.882
189.852
183.822
177.792
171.762
165.733
159.703
153.673
147.643
141.613
135.583
129.553
123.523
117.493
111.463
105.433
99.4037
93.3739
87.3442
81.3146
75.2853
69.2562
63.2276
57.1997
51.1728
45.1475
39.1245
33.1047
27.0901
21.0806
15.079
9.07323
3.06135
611.125
601.626
595.524
587.512
580.608
573.513
566.774
560.106
553.591
547.158
540.81
534.521
528.284
522.087
515.924
509.787
503.672
497.575
491.491
485.418
479.355
473.298
467.248
461.202
455.159
449.119
443.082
437.046
431.011
424.978
418.946
412.914
406.882
400.851
394.82
388.79
382.759
376.729
370.699
364.669
358.639
352.609
346.579
340.549
334.519
328.489
322.459
316.429
310.399
304.369
298.339
292.309
286.279
280.25
274.22
268.19
262.16
256.13
250.1
244.07
238.04
232.01
225.981
219.951
213.921
207.891
201.861
195.831
189.801
183.771
177.742
171.712
165.682
159.652
153.622
147.592
141.562
135.532
129.502
123.472
117.442
111.412
105.383
99.3528
93.323
87.2933
81.2637
75.2344
69.2053
63.1767
57.1488
51.122
45.0966
39.0736
33.0538
27.0389
21.0294
15.026
9.02608
3.01909
611.577
601.589
595.449
587.42
580.538
573.452
566.715
560.048
553.533
547.101
540.752
534.464
528.227
522.03
515.867
509.731
503.616
497.518
491.435
485.362
479.298
473.242
467.191
461.145
455.103
449.063
443.025
436.99
430.955
424.922
418.889
412.857
406.826
400.795
394.764
388.734
382.703
376.673
370.643
364.613
358.582
352.552
346.522
340.492
334.463
328.433
322.403
316.373
310.343
304.313
298.283
292.253
286.223
280.193
274.163
268.133
262.104
256.074
250.044
244.014
237.984
231.954
225.924
219.894
213.865
207.835
201.805
195.775
189.745
183.715
177.685
171.655
165.625
159.596
153.566
147.536
141.506
135.476
129.446
123.416
117.386
111.356
105.326
99.2965
93.2667
87.237
81.2075
75.1781
69.1491
63.1205
57.0926
51.0657
45.0404
39.0174
32.9976
26.9824
20.9728
14.9678
8.97386
2.97226
612.104
601.535
595.364
587.32
580.462
573.385
566.651
559.985
553.47
547.038
540.69
534.401
528.165
521.968
515.805
509.669
503.554
497.457
491.373
485.301
479.237
473.181
467.13
461.084
455.041
449.002
442.964
436.928
430.894
424.861
418.828
412.796
406.765
400.734
394.703
388.672
382.642
376.612
370.581
364.551
358.521
352.491
346.461
340.431
334.401
328.371
322.341
316.311
310.282
304.252
298.222
292.192
286.162
280.132
274.102
268.072
262.042
256.012
249.983
243.953
237.923
231.893
225.863
219.833
213.803
207.773
201.744
195.714
189.684
183.654
177.624
171.594
165.564
159.534
153.504
147.474
141.444
135.415
129.385
123.355
117.325
111.295
105.265
99.2352
93.2055
87.1758
81.1462
75.1169
69.0878
63.0592
57.0313
51.0045
44.9792
38.9562
32.9364
26.9209
20.9112
14.9047
8.91685
2.92114
612.722
601.458
595.27
587.215
580.381
573.313
566.582
559.917
553.402
546.971
540.623
534.334
528.098
521.902
515.739
509.603
503.488
497.391
491.307
485.235
479.172
473.115
467.065
461.019
454.976
448.936
442.899
436.863
430.829
424.795
418.763
412.731
406.699
400.668
394.637
388.607
382.577
376.546
370.516
364.486
358.456
352.426
346.396
340.366
334.336
328.306
322.276
316.246
310.216
304.186
298.156
292.126
286.097
280.067
274.037
268.007
261.977
255.947
249.917
243.887
237.857
231.828
225.798
219.768
213.738
207.708
201.678
195.648
189.618
183.589
177.559
171.529
165.499
159.469
153.439
147.409
141.379
135.349
129.319
123.289
117.259
111.23
105.2
99.1699
93.1401
87.1104
81.0809
75.0515
69.0225
62.9939
56.966
50.9392
44.9139
38.8909
32.8711
26.8553
20.8455
14.8378
8.85585
2.86644
613.45
601.353
595.168
587.107
580.296
573.238
566.51
559.846
553.332
546.901
540.553
534.265
528.029
521.833
515.671
509.535
503.42
497.323
491.24
485.167
479.104
473.048
466.997
460.951
454.908
448.869
442.831
436.796
430.761
424.728
418.695
412.663
406.632
400.601
394.57
388.539
382.509
376.479
370.449
364.418
358.388
352.358
346.328
340.298
334.268
328.238
322.209
316.179
310.149
304.119
298.089
292.059
286.029
279.999
273.969
267.939
261.909
255.88
249.85
243.82
237.79
231.76
225.73
219.7
213.67
207.641
201.611
195.581
189.551
183.521
177.491
171.461
165.431
159.401
153.371
147.342
141.312
135.282
129.252
123.222
117.192
111.162
105.132
99.1024
93.0726
87.0429
81.0134
74.984
68.955
62.9264
56.8986
50.8717
44.8465
38.8235
32.8037
26.7876
20.7777
14.769
8.79256
2.80975
614.321
601.219
595.062
587.001
580.212
573.165
566.438
559.777
553.263
546.832
540.485
534.198
527.962
521.766
515.604
509.468
503.354
497.257
491.173
485.101
479.038
472.982
466.931
460.885
454.843
448.803
442.766
436.73
430.695
424.662
418.629
412.598
406.566
400.535
394.504
388.474
382.443
376.413
370.383
364.353
358.323
352.293
346.263
340.233
334.203
328.173
322.143
316.113
310.083
304.053
298.023
291.993
285.963
279.933
273.904
267.874
261.844
255.814
249.784
243.754
237.724
231.694
225.664
219.635
213.605
207.575
201.545
195.515
189.485
183.455
177.425
171.395
165.366
159.336
153.306
147.276
141.246
135.216
129.186
123.156
117.126
111.096
105.066
99.0367
93.0069
86.9772
80.9477
74.9183
68.8893
62.8607
56.8329
50.8061
44.7808
38.7578
32.738
26.7218
20.7117
14.7023
8.73052
2.75435
615.367
601.055
594.96
586.906
580.137
573.101
566.376
559.717
553.203
546.773
540.427
534.14
527.905
521.71
515.548
509.412
503.298
497.201
491.118
485.045
478.982
472.926
466.876
460.83
454.787
448.747
442.71
436.674
430.64
424.606
418.574
412.542
406.511
400.48
394.449
388.418
382.388
376.357
370.327
364.297
358.267
352.237
346.207
340.177
334.147
328.117
322.087
316.057
310.027
303.998
297.968
291.938
285.908
279.878
273.848
267.818
261.788
255.758
249.728
243.699
237.669
231.639
225.609
219.579
213.549
207.519
201.489
195.46
189.43
183.4
177.37
171.34
165.31
159.28
153.25
147.22
141.19
135.16
129.131
123.101
117.071
111.041
105.011
98.9811
92.9514
86.9217
80.8921
74.8628
68.8338
62.8052
56.7774
50.7506
44.7253
38.7024
32.6825
26.6661
20.6562
14.6462
8.67776
2.70775
616.663
600.883
594.885
586.847
580.092
573.067
566.344
559.687
553.175
546.746
540.4
534.114
527.879
521.684
515.522
509.387
503.273
497.176
491.093
485.021
478.958
472.902
466.851
460.805
454.763
448.723
442.686
436.65
430.616
424.582
418.55
412.518
406.487
400.455
394.425
388.394
382.364
376.333
370.303
364.273
358.243
352.213
346.183
340.153
334.123
328.093
322.063
316.033
310.003
303.974
297.944
291.914
285.884
279.854
273.824
267.794
261.764
255.734
249.704
243.675
237.645
231.615
225.585
219.555
213.525
207.495
201.465
195.435
189.406
183.376
177.346
171.316
165.286
159.256
153.226
147.196
141.166
135.136
129.106
123.077
117.047
111.017
104.987
98.9571
92.9273
86.8976
80.8681
74.8388
68.8098
62.7812
56.7534
50.7266
44.7014
38.6784
32.6586
26.642
20.6318
14.6221
8.65537
2.68952