/*--------------------------------*- C++ -*----------------------------------*\
| =========                 |                                                 |
| \\      /  F ield         | OpenFOAM: The Open Source CFD Toolbox           |
|  \\    /   O peration     | Version:  v1906                                 |
|   \\  /    A nd           | Web:      www.OpenFOAM.com                      |
|    \\/     M anipulation  |                                                 |
\*---------------------------------------------------------------------------*/
FoamFile
{
    version     2.0;
    format      ascii;
    class       volScalarField;
    location    "1.5";
    object      pB;
}
// * * * * * * * * * * * * * * * * * * * * * * * * * * * * * * * * * * * * * //

dimensions      [1 1 -3 0 0 -1 0];


internalField   nonuniform List<scalar> 
4000
(
27.9035
64.0792
83.7229
90.7574
90.305
84.9607
77.1522
68.2735
59.2829
50.7088
42.8519
35.8427
29.7146
24.4385
19.9517
16.1743
13.021
10.4077
8.25552
6.49293
5.05662
3.89149
2.95028
2.1929
1.58566
1.10043
0.713986
0.407142
0.164224
-0.0275117
-0.178484
-0.296997
-0.389835
-0.462366
-0.518888
-0.562874
-0.596973
-0.623402
-0.643811
-0.659544
-0.671669
-0.68096
-0.688093
-0.693544
-0.697691
-0.700859
-0.703245
-0.705061
-0.706426
-0.707449
-0.708222
-0.70879
-0.709217
-0.709528
-0.709752
-0.709919
-0.710029
-0.71011
-0.710158
-0.710184
-0.710194
-0.710185
-0.710162
-0.710126
-0.710072
-0.710005
-0.709913
-0.709796
-0.709638
-0.709431
-0.709158
-0.708799
-0.708325
-0.707703
-0.706878
-0.705784
-0.704334
-0.7024
-0.699834
-0.696422
-0.691895
-0.685913
-0.678028
-0.667698
-0.654232
-0.636815
-0.614471
-0.58612
-0.55063
-0.506965
-0.454489
-0.393432
-0.325732
-0.256307
-0.19499
-0.158449
-0.169978
-0.248579
-0.366122
-0.363109
30.0653
64.1081
83.0011
89.9659
89.5435
84.2961
76.583
67.7957
58.8853
50.3819
42.5862
35.6295
29.5459
24.3074
19.852
16.1007
12.9689
10.3732
8.23536
6.48438
5.05742
3.89979
2.96456
2.21194
1.60846
1.12619
0.742082
0.437062
0.195563
0.00493285
-0.145185
-0.263036
-0.355366
-0.427507
-0.48373
-0.527487
-0.561413
-0.587708
-0.608019
-0.623675
-0.635742
-0.644989
-0.65209
-0.657515
-0.661645
-0.664798
-0.667176
-0.668983
-0.670344
-0.671361
-0.672133
-0.672697
-0.673123
-0.673432
-0.673655
-0.67382
-0.67393
-0.674008
-0.674058
-0.674082
-0.674094
-0.674083
-0.674061
-0.674025
-0.673971
-0.673904
-0.673813
-0.673695
-0.673539
-0.673332
-0.673062
-0.672704
-0.672233
-0.671614
-0.670794
-0.669705
-0.668262
-0.666338
-0.663786
-0.660392
-0.65589
-0.649941
-0.642102
-0.631832
-0.618448
-0.601138
-0.578939
-0.55078
-0.515546
-0.472217
-0.42018
-0.359677
-0.292646
-0.223929
-0.163088
-0.125983
-0.133929
-0.201722
-0.298774
-0.289958
31.3886
63.9949
81.9624
88.7541
88.3356
83.2058
75.6274
66.9782
58.1953
49.8077
42.1143
35.247
29.2404
24.0673
19.6671
15.962
12.8686
10.3044
8.1924
6.46244
5.05248
3.90856
2.98432
2.24046
1.64395
1.1672
0.787432
0.485833
0.247011
0.058475
-0.0900162
-0.206603
-0.297954
-0.369341
-0.424984
-0.468294
-0.501881
-0.527913
-0.548028
-0.563531
-0.575484
-0.584642
-0.591676
-0.59705
-0.601144
-0.604268
-0.606626
-0.608416
-0.609768
-0.610775
-0.611543
-0.612101
-0.612522
-0.612827
-0.613048
-0.613209
-0.613319
-0.613394
-0.613445
-0.613467
-0.61348
-0.613469
-0.613447
-0.61341
-0.613357
-0.61329
-0.613199
-0.613082
-0.612928
-0.612723
-0.612457
-0.612102
-0.611638
-0.611023
-0.610214
-0.609134
-0.607707
-0.605802
-0.603277
-0.599919
-0.595467
-0.589582
-0.581831
-0.571676
-0.558447
-0.541338
-0.519406
-0.491595
-0.456812
-0.414065
-0.36276
-0.30315
-0.237134
-0.16938
-0.108954
-0.0704023
-0.0722639
-0.12422
-0.19602
-0.179209
31.4952
63.3863
80.4478
86.9878
86.5596
81.5747
74.1797
65.7245
57.1254
48.9069
41.3644
34.6297
28.7378
23.6628
19.3455
15.7098
12.6741
10.1577
8.08471
6.38661
5.0025
3.87943
2.97194
2.24146
1.65561
1.18732
0.814234
0.517898
0.283208
0.0979064
-0.048063
-0.162688
-0.252517
-0.322728
-0.377464
-0.420075
-0.453129
-0.478748
-0.498553
-0.513814
-0.525586
-0.534604
-0.541532
-0.546825
-0.550859
-0.553938
-0.556264
-0.558027
-0.559363
-0.560355
-0.561113
-0.561662
-0.562077
-0.562377
-0.562593
-0.562749
-0.562857
-0.562929
-0.56298
-0.563
-0.563014
-0.563002
-0.562981
-0.562943
-0.562891
-0.562823
-0.562735
-0.562618
-0.562467
-0.562265
-0.562004
-0.561655
-0.5612
-0.560594
-0.559799
-0.558736
-0.557333
-0.555459
-0.552977
-0.549674
-0.545299
-0.539515
-0.531899
-0.521923
-0.50893
-0.492131
-0.470604
-0.443318
-0.409211
-0.367324
-0.317088
-0.258753
-0.194145
-0.127651
-0.0675952
-0.0267154
-0.020077
-0.0517867
-0.0943027
-0.0652773
30.7034
62.1594
78.4271
84.6774
84.2355
79.4197
72.253
64.0441
55.683
47.6851
40.3408
33.7809
28.0405
23.0952
18.8878
15.3444
12.3854
9.93237
7.91149
6.25589
4.90628
3.81107
2.92598
2.21345
1.64191
1.18497
0.820875
0.531632
0.302517
0.121586
-0.0209698
-0.132936
-0.220699
-0.28931
-0.34281
-0.384467
-0.416791
-0.441847
-0.461223
-0.476155
-0.487676
-0.496502
-0.503284
-0.508465
-0.512416
-0.515431
-0.517713
-0.51944
-0.520751
-0.521723
-0.522467
-0.523005
-0.52341
-0.523702
-0.523912
-0.524062
-0.524168
-0.524235
-0.524286
-0.524305
-0.524319
-0.524306
-0.524285
-0.524246
-0.524195
-0.524127
-0.52404
-0.523924
-0.523778
-0.52358
-0.523326
-0.522985
-0.522542
-0.521949
-0.521173
-0.520133
-0.518762
-0.51693
-0.514505
-0.511279
-0.507006
-0.501359
-0.493926
-0.48419
-0.471516
-0.455131
-0.434144
-0.407555
-0.374341
-0.333581
-0.28473
-0.228029
-0.165188
-0.100218
-0.0405029
0.00337677
0.0201818
0.0111701
-0.000289878
0.0405135
29.3779
60.3233
75.8953
81.8449
81.3931
76.7692
69.8721
61.9591
53.8874
46.1595
39.059
32.7145
27.1613
22.3766
18.3053
14.8762
12.0124
9.63806
7.68186
6.0791
4.77241
3.71191
2.85476
2.16462
1.61094
1.16822
0.815386
0.535038
0.312922
0.137484
-0.000775481
-0.109391
-0.194546
-0.261135
-0.31307
-0.353519
-0.384916
-0.409256
-0.428086
-0.442597
-0.453797
-0.462378
-0.468973
-0.474012
-0.477856
-0.48079
-0.483013
-0.484694
-0.485972
-0.486919
-0.487644
-0.488167
-0.48856
-0.488842
-0.489044
-0.489187
-0.489289
-0.489352
-0.489402
-0.489419
-0.489432
-0.489418
-0.489397
-0.489358
-0.489307
-0.48924
-0.489155
-0.489041
-0.488899
-0.488707
-0.488461
-0.488131
-0.487702
-0.487126
-0.486373
-0.485363
-0.484031
-0.482253
-0.4799
-0.47677
-0.472627
-0.467151
-0.459947
-0.450513
-0.438235
-0.422368
-0.402052
-0.376327
-0.344214
-0.304833
-0.257669
-0.202935
-0.142195
-0.0790052
-0.0196701
0.0275858
0.0554147
0.0699071
0.0894492
0.137793
27.7411
57.9337
72.8611
78.5113
78.0584
73.6486
67.0598
59.4887
51.7552
44.3445
37.5313
31.4414
26.1097
21.5152
17.6052
14.3116
11.5608
9.27994
7.40058
5.86063
4.60501
3.58584
2.76198
2.09854
1.56621
1.14048
0.801121
0.531427
0.317703
0.148857
0.0157613
-0.0888229
-0.170836
-0.234986
-0.28503
-0.324017
-0.354287
-0.377759
-0.395923
-0.409924
-0.420731
-0.429014
-0.43538
-0.440245
-0.443958
-0.446793
-0.448943
-0.450568
-0.451805
-0.45272
-0.453421
-0.453926
-0.454305
-0.454575
-0.454768
-0.454903
-0.455
-0.455058
-0.455105
-0.45512
-0.455132
-0.455118
-0.455096
-0.455057
-0.455006
-0.45494
-0.454857
-0.454746
-0.45461
-0.454424
-0.454188
-0.45387
-0.453458
-0.452903
-0.452177
-0.451203
-0.44992
-0.448206
-0.445939
-0.442925
-0.438936
-0.433667
-0.426736
-0.417662
-0.405858
-0.390608
-0.371091
-0.34639
-0.315577
-0.277818
-0.232621
-0.180169
-0.121846
-0.0607016
-0.0018834
0.0487979
0.0877364
0.125193
0.173911
0.224361
25.9202
55.0609
69.3452
74.6987
74.2561
70.0825
63.8375
56.6516
49.3021
42.2532
35.7689
29.9707
24.8933
20.5171
16.7926
13.6549
11.0341
8.86081
7.06996
5.60239
4.40566
3.43417
2.64874
2.01616
1.50851
1.10244
0.778693
0.521354
0.317372
0.156186
0.0290981
-0.0707902
-0.14914
-0.210439
-0.258271
-0.295545
-0.324494
-0.346944
-0.364325
-0.377722
-0.388068
-0.395998
-0.402094
-0.406755
-0.410313
-0.41303
-0.415092
-0.41665
-0.417838
-0.418715
-0.419387
-0.419871
-0.420232
-0.420488
-0.420671
-0.420797
-0.420888
-0.420942
-0.420985
-0.420998
-0.421008
-0.420993
-0.42097
-0.420931
-0.420881
-0.420815
-0.420734
-0.420627
-0.420496
-0.420319
-0.420094
-0.41979
-0.419397
-0.418866
-0.418173
-0.417241
-0.416013
-0.414375
-0.412207
-0.409328
-0.405519
-0.400488
-0.393874
-0.385218
-0.373961
-0.359424
-0.340828
-0.317307
-0.287983
-0.252073
-0.209111
-0.159234
-0.103634
-0.0448223
0.0132336
0.0670648
0.116489
0.175136
0.249571
0.297149
23.9906
51.7773
65.3782
70.4333
70.0126
66.0962
60.2283
53.4677
46.545
39.8999
33.7835
28.3124
23.5202
19.3892
15.8729
12.9104
10.4357
8.3835
6.69223
5.30614
4.17573
3.25797
2.51588
1.91811
1.43832
1.05447
0.74838
0.505026
0.312084
0.159588
0.0393222
-0.0552275
-0.129407
-0.187459
-0.232767
-0.268083
-0.295519
-0.316799
-0.333279
-0.345984
-0.355798
-0.363323
-0.369108
-0.373533
-0.376911
-0.379492
-0.381452
-0.382933
-0.384062
-0.384895
-0.385534
-0.385992
-0.386334
-0.386575
-0.386745
-0.386862
-0.386946
-0.386994
-0.387033
-0.387043
-0.38705
-0.387034
-0.38701
-0.386971
-0.386922
-0.386857
-0.386779
-0.386676
-0.386551
-0.386383
-0.38617
-0.385883
-0.385511
-0.385008
-0.38435
-0.383467
-0.382303
-0.380749
-0.378696
-0.375968
-0.372363
-0.367603
-0.361347
-0.353163
-0.342524
-0.32879
-0.311233
-0.289036
-0.261381
-0.227534
-0.187053
-0.140031
-0.0874517
-0.0312874
0.0256421
0.08203
0.140668
0.217632
0.313114
0.35404
21.9967
48.1501
60.9973
65.7448
65.3561
61.7169
56.2568
49.9587
43.5024
37.3002
31.5884
26.4772
21.9994
18.1387
14.8522
12.0831
9.76978
7.8512
6.26996
4.97391
3.91683
3.05851
2.36439
1.80519
1.35627
0.997066
0.71057
0.48275
0.302084
0.159259
0.0465939
-0.0420025
-0.111526
-0.16595
-0.208434
-0.241557
-0.267296
-0.287263
-0.30273
-0.314655
-0.323869
-0.330937
-0.336372
-0.34053
-0.343705
-0.346131
-0.347976
-0.349368
-0.350431
-0.351213
-0.351813
-0.352243
-0.352562
-0.352786
-0.352943
-0.35305
-0.353125
-0.353167
-0.353201
-0.353208
-0.353212
-0.353194
-0.35317
-0.353131
-0.353082
-0.353019
-0.352943
-0.352845
-0.352727
-0.352568
-0.352369
-0.3521
-0.351751
-0.351279
-0.350662
-0.349832
-0.348739
-0.34728
-0.345353
-0.342795
-0.339416
-0.334956
-0.329099
-0.321438
-0.311484
-0.29864
-0.282229
-0.261493
-0.235671
-0.204084
-0.166315
-0.122408
-0.0731434
-0.0199727
0.0353482
0.0934072
0.159425
0.250986
0.362129
0.394047
19.9637
44.2386
56.2435
60.6662
60.3172
56.9736
51.9492
46.1475
40.1942
34.471
29.1976
24.4772
20.3407
16.7739
13.7373
11.1784
9.04058
7.26745
5.80596
4.60798
3.63078
2.83723
2.19542
1.67827
1.26307
0.930776
0.665699
0.454873
0.287645
0.155418
0.0510881
-0.0309728
-0.095382
-0.145814
-0.18519
-0.215896
-0.239763
-0.25828
-0.272628
-0.283692
-0.292241
-0.298802
-0.303847
-0.30771
-0.310658
-0.312912
-0.314627
-0.31592
-0.316908
-0.317634
-0.31819
-0.318587
-0.318881
-0.319087
-0.31923
-0.319325
-0.319392
-0.319427
-0.319455
-0.319458
-0.319458
-0.319439
-0.319413
-0.319374
-0.319326
-0.319265
-0.319193
-0.319099
-0.318989
-0.318841
-0.318656
-0.318406
-0.318083
-0.317645
-0.317072
-0.316301
-0.315286
-0.313931
-0.312143
-0.30977
-0.306638
-0.302507
-0.297085
-0.289996
-0.280789
-0.268915
-0.25375
-0.234599
-0.210762
-0.181617
-0.146772
-0.106226
-0.0605634
-0.0107603
0.042366
0.100966
0.172094
0.273952
0.395072
0.417011
17.9056
40.0932
51.1586
55.2325
54.9279
51.8965
47.3332
42.0588
36.6417
31.4306
26.6266
22.3251
18.5549
15.3035
12.5351
10.2021
8.25292
6.63609
5.30335
4.2108
3.31953
2.59569
2.01018
1.53835
1.15947
0.856205
0.614241
0.421762
0.269058
0.14829
0.052982
-0.0219996
-0.0808639
-0.126966
-0.162966
-0.191045
-0.212875
-0.229813
-0.242941
-0.253065
-0.26089
-0.266896
-0.271516
-0.275054
-0.277755
-0.279819
-0.28139
-0.282574
-0.28348
-0.284143
-0.284651
-0.285012
-0.285279
-0.285464
-0.285592
-0.285675
-0.285733
-0.28576
-0.285782
-0.28578
-0.285776
-0.285755
-0.285728
-0.285689
-0.285642
-0.285583
-0.285514
-0.285426
-0.285324
-0.285187
-0.285017
-0.284788
-0.284492
-0.28409
-0.283565
-0.282858
-0.281927
-0.280686
-0.279047
-0.276875
-0.27401
-0.270235
-0.265281
-0.258809
-0.250407
-0.239576
-0.225749
-0.208296
-0.186583
-0.160045
-0.12832
-0.0913632
-0.049585
-0.00354481
0.0467199
0.10455
0.178218
0.285746
0.411178
0.423358
15.8301
35.7563
45.784
49.4805
49.2221
46.5171
42.4377
37.7183
32.8673
28.198
23.8917
20.0346
16.6534
13.737
11.2536
9.16067
7.4119
5.96127
4.76544
3.78506
2.98523
2.33559
1.81005
1.38649
1.04633
0.774017
0.556715
0.383829
0.246641
0.138126
0.0524699
-0.0149311
-0.0678539
-0.109311
-0.141689
-0.166946
-0.186586
-0.201826
-0.213641
-0.222752
-0.229796
-0.235204
-0.239363
-0.242551
-0.244983
-0.246842
-0.248257
-0.249323
-0.250138
-0.250733
-0.251188
-0.251511
-0.251748
-0.251911
-0.252023
-0.252093
-0.25214
-0.252159
-0.252175
-0.252167
-0.252159
-0.252135
-0.252107
-0.252069
-0.252023
-0.251966
-0.251901
-0.251819
-0.251724
-0.251599
-0.251446
-0.251238
-0.250971
-0.250608
-0.250134
-0.249495
-0.248655
-0.247535
-0.246057
-0.244099
-0.24152
-0.238123
-0.23367
-0.227855
-0.220309
-0.210587
-0.198182
-0.182531
-0.163067
-0.139287
-0.110858
-0.0777033
-0.0400817
0.00178893
0.0484728
0.104106
0.177582
0.286057
0.410397
0.413962
13.7417
31.2636
40.16
43.4476
43.2347
40.8684
37.2929
33.153
28.8947
24.7937
21.01
17.6202
14.648
12.0842
9.90084
8.06066
6.52299
5.24741
4.19582
3.33364
2.63018
2.05877
1.59648
1.22386
0.924566
0.684942
0.493699
0.341524
0.22075
0.125204
0.0497706
-0.00959604
-0.0562176
-0.0927458
-0.121276
-0.143535
-0.160846
-0.174278
-0.184695
-0.192726
-0.198937
-0.203706
-0.207374
-0.210186
-0.212332
-0.21397
-0.215218
-0.216156
-0.216874
-0.217396
-0.217794
-0.218075
-0.21828
-0.218421
-0.218514
-0.218571
-0.218608
-0.218618
-0.218626
-0.218613
-0.2186
-0.218574
-0.218544
-0.218506
-0.218462
-0.218408
-0.218347
-0.21827
-0.218185
-0.218072
-0.217935
-0.21775
-0.217513
-0.217191
-0.216771
-0.216205
-0.215461
-0.214468
-0.213161
-0.21143
-0.209153
-0.206156
-0.202232
-0.19711
-0.190468
-0.181914
-0.171005
-0.157247
-0.140145
-0.119256
-0.0942817
-0.0651238
-0.0319175
0.00537827
0.0477416
0.0997115
0.170232
0.275041
0.393311
0.390047
11.6434
26.6451
34.3248
37.1718
37.0018
34.9843
31.9299
28.3908
24.7483
21.2387
17.9996
15.0969
12.5515
10.3556
8.48547
6.90917
5.59195
4.49918
3.59826
2.85957
2.25683
1.76721
1.37105
1.0517
0.795175
0.589769
0.425816
0.295341
0.191774
0.10983
0.0451257
-0.00580419
-0.0458054
-0.0771516
-0.101635
-0.120738
-0.135596
-0.147123
-0.156065
-0.162957
-0.168289
-0.172382
-0.175531
-0.177946
-0.179787
-0.181193
-0.182263
-0.183064
-0.18368
-0.184123
-0.184461
-0.184697
-0.184869
-0.184985
-0.18506
-0.185103
-0.185128
-0.185129
-0.185129
-0.185109
-0.185092
-0.185063
-0.185033
-0.184995
-0.184952
-0.184901
-0.184844
-0.184774
-0.184697
-0.184597
-0.184477
-0.184315
-0.184111
-0.183831
-0.183468
-0.182977
-0.182334
-0.181476
-0.180347
-0.178854
-0.176893
-0.174316
-0.170945
-0.166549
-0.160852
-0.153519
-0.144171
-0.132387
-0.117744
-0.0998633
-0.0784839
-0.0534963
-0.0249451
0.00738598
0.0447021
0.0915686
0.156466
0.253282
0.361049
0.353106
9.53703
21.9266
28.3148
30.6911
30.5602
28.8995
26.3808
23.4605
20.4534
17.5549
14.8789
12.4805
10.377
8.56218
7.01648
5.71359
4.62479
3.72149
2.97675
2.36608
1.86778
1.46297
1.13541
0.871348
0.659218
0.489342
0.353738
0.245813
0.160134
0.0923386
0.0387978
-0.0033484
-0.0364538
-0.0623994
-0.082664
-0.0984739
-0.110772
-0.120309
-0.12771
-0.133412
-0.137823
-0.14121
-0.143814
-0.145813
-0.147335
-0.148496
-0.149379
-0.150037
-0.150544
-0.150905
-0.151181
-0.15137
-0.151506
-0.151596
-0.151652
-0.151679
-0.151692
-0.151684
-0.151676
-0.15165
-0.151628
-0.151596
-0.151564
-0.151527
-0.151486
-0.151438
-0.151386
-0.151322
-0.151255
-0.151167
-0.151065
-0.150927
-0.150755
-0.150519
-0.150215
-0.149803
-0.149264
-0.148546
-0.147604
-0.146358
-0.144727
-0.142585
-0.139789
-0.136146
-0.13143
-0.125362
-0.11763
-0.107889
-0.0957889
-0.081016
-0.0633519
-0.0426865
-0.0190055
0.0080007
0.0395889
0.0800073
0.136825
0.221752
0.315202
0.304841
7.42428
17.1303
22.1646
24.0432
23.9473
22.6496
20.6784
18.3917
16.0361
13.7648
11.6674
9.78724
8.13808
6.71514
5.50318
4.48155
3.62777
2.91943
2.3354
1.85651
1.46571
1.14823
0.891322
0.684201
0.517809
0.384552
0.278172
0.193502
0.126277
0.0730825
0.0310673
-0.00200674
-0.0279872
-0.04835
-0.0642518
-0.0766555
-0.0863031
-0.0937811
-0.0995851
-0.104053
-0.107511
-0.110164
-0.112204
-0.113769
-0.11496
-0.115866
-0.116555
-0.117064
-0.117458
-0.117733
-0.117943
-0.118083
-0.118183
-0.118245
-0.118281
-0.118293
-0.118294
-0.118275
-0.118259
-0.118227
-0.1182
-0.118165
-0.118132
-0.118095
-0.118056
-0.118011
-0.117965
-0.117907
-0.117849
-0.117774
-0.11769
-0.117577
-0.117438
-0.117248
-0.117003
-0.116673
-0.116242
-0.115669
-0.114919
-0.113929
-0.112638
-0.110945
-0.108741
-0.105874
-0.102168
-0.0974014
-0.0913325
-0.0836904
-0.0742014
-0.062619
-0.0487698
-0.0325544
-0.0139288
0.00743598
0.032692
0.0654733
0.112061
0.181759
0.25774
0.247115
5.30657
12.2758
15.9072
17.2658
17.2007
16.2706
14.8562
13.2145
11.5229
9.8915
8.38466
7.0337
5.84865
4.82609
3.95513
3.22092
2.60732
2.09824
1.67849
1.3343
1.05342
0.825235
0.640581
0.491709
0.372111
0.276326
0.199859
0.138998
0.0906716
0.0524347
0.0222299
-0.00154478
-0.0202196
-0.0348561
-0.0462816
-0.0551897
-0.0621164
-0.0674793
-0.071643
-0.0748432
-0.0773208
-0.0792195
-0.0806771
-0.0817971
-0.0826457
-0.0832895
-0.0837786
-0.0841335
-0.0844101
-0.0845965
-0.0847396
-0.0848292
-0.0848905
-0.0849249
-0.0849398
-0.0849356
-0.084924
-0.084895
-0.0848703
-0.0848319
-0.0848002
-0.0847625
-0.0847284
-0.0846917
-0.0846551
-0.0846135
-0.0845723
-0.0845216
-0.0844732
-0.084411
-0.0843452
-0.0842565
-0.0841514
-0.084007
-0.0838243
-0.083577
-0.083257
-0.0828318
-0.0822791
-0.0815517
-0.0806086
-0.0793764
-0.077779
-0.0757056
-0.073031
-0.0695956
-0.0652252
-0.0597262
-0.052902
-0.0445746
-0.034619
-0.0229552
-0.00953491
0.005928
0.0243516
0.048514
0.0831127
0.134891
0.19094
0.181914
3.18531
7.38116
9.57416
10.3961
10.3585
9.79925
8.94795
7.95962
6.94102
5.95847
5.05077
4.2369
3.52294
2.90686
2.38211
1.93974
1.57004
1.26331
1.01039
0.803017
0.633779
0.496303
0.385055
0.295367
0.223324
0.165624
0.119566
0.0829131
0.0538054
0.0307827
0.0125934
-0.00171816
-0.012957
-0.0217635
-0.0286308
-0.0339788
-0.0381338
-0.0413415
-0.0438333
-0.0457406
-0.0472185
-0.0483477
-0.0492118
-0.0498762
-0.0503756
-0.0507513
-0.0510359
-0.0512337
-0.0513906
-0.0514862
-0.0515604
-0.0515985
-0.0516208
-0.0516262
-0.0516196
-0.0515988
-0.0515745
-0.0515351
-0.0515021
-0.0514575
-0.0514211
-0.0513809
-0.0513456
-0.0513095
-0.051275
-0.0512369
-0.0512012
-0.0511574
-0.0511186
-0.0510694
-0.0510218
-0.050958
-0.0508868
-0.0507888
-0.0506683
-0.0505054
-0.0502979
-0.0500234
-0.0496717
-0.0492115
-0.0486229
-0.047859
-0.046878
-0.0456111
-0.0439849
-0.0419011
-0.0392549
-0.0359306
-0.0318095
-0.0267835
-0.020778
-0.0137398
-0.00563513
0.00373193
0.0149491
0.0297603
0.0510673
0.0829525
0.117307
0.111312
1.06193
2.4628
3.19611
3.47122
3.45891
3.27228
2.98803
2.65795
2.31773
1.98948
1.68609
1.41403
1.17538
0.969442
0.794056
0.646183
0.522602
0.420081
0.335548
0.266254
0.209703
0.163789
0.126643
0.0967052
0.0726738
0.0534292
0.0380784
0.0258732
0.0161778
0.00852432
0.0024742
-0.00227529
-0.00599955
-0.00891327
-0.0111729
-0.0129221
-0.0142745
-0.0153032
-0.016104
-0.0167035
-0.0171699
-0.0175203
-0.0177835
-0.0179865
-0.0181321
-0.018236
-0.0183135
-0.0183523
-0.0183878
-0.0183915
-0.0183958
-0.0183817
-0.0183645
-0.0183404
-0.0183117
-0.0182741
-0.0182369
-0.0181873
-0.0181461
-0.0180955
-0.0180547
-0.018012
-0.0179757
-0.0179401
-0.0179078
-0.0178732
-0.0178431
-0.0178064
-0.0177772
-0.0177411
-0.0177117
-0.0176727
-0.0176352
-0.0175837
-0.0175259
-0.0174479
-0.0173542
-0.017232
-0.0170834
-0.0168933
-0.0166632
-0.0163726
-0.0160142
-0.0155616
-0.0149935
-0.0142738
-0.0133673
-0.0122367
-0.0108417
-0.00914498
-0.00712378
-0.00475588
-0.00203438
0.0011173
0.00489673
0.0099051
0.0171196
0.0279096
0.0395104
0.0374458
-1.06218
-2.46338
-3.19686
-3.47209
-3.45984
-3.27324
-2.98915
-2.65935
-2.31938
-1.99153
-1.68887
-1.41754
-1.17948
-0.97405
-0.799029
-0.651513
-0.528222
-0.425912
-0.34155
-0.272338
-0.215854
-0.169919
-0.132732
-0.102732
-0.0785983
-0.059264
-0.0438079
-0.0314851
-0.0217037
-0.0139361
-0.00780576
-0.00296018
0.000856368
0.00385645
0.0062211
0.00808329
0.00954337
0.0107015
0.0115978
0.0123112
0.0128604
0.0132919
0.013632
0.0138927
0.0141026
0.0142716
0.0144022
0.014523
0.0146095
0.0146981
0.0147643
0.0148307
0.0148878
0.0149416
0.0149926
0.0150471
0.0150972
0.0151568
0.0152059
0.0152621
0.0153072
0.0153521
0.0153894
0.0154244
0.0154546
0.0154856
0.0155102
0.0155397
0.0155592
0.0155824
0.0155938
0.0156081
0.0156121
0.0156174
0.0156127
0.0156055
0.0155853
0.0155546
0.0154991
0.0154179
0.015288
0.0151034
0.0148369
0.0144726
0.0139795
0.013331
0.0124924
0.0114231
0.0100844
0.00844264
0.00646812
0.00415063
0.00146643
-0.00163749
-0.00537387
-0.0103211
-0.0174689
-0.0281783
-0.0396843
-0.0375117
-3.18556
-7.38174
-9.5749
-10.397
-10.3594
-9.80021
-8.94908
-7.96104
-6.94269
-5.96054
-5.05357
-4.24041
-3.52705
-2.91148
-2.38709
-1.94508
-1.57566
-1.26914
-1.0164
-0.8091
-0.639928
-0.502429
-0.39114
-0.30139
-0.229245
-0.171456
-0.125293
-0.0885225
-0.0593291
-0.036192
-0.0179229
-0.00351539
0.00781551
0.0167085
0.0236808
0.0291408
0.0334027
0.036739
0.0393258
0.0413469
0.0429078
0.0441183
0.0450593
0.0457821
0.0463462
0.0467873
0.0471252
0.0474048
0.0476126
0.0477933
0.0479296
0.0480483
0.0481451
0.0482287
0.048302
0.0483734
0.0484363
0.0485056
0.0485622
0.0486236
0.0486726
0.0487195
0.0487578
0.0487921
0.0488202
0.0488477
0.0488669
0.0488892
0.0488991
0.0489093
0.048903
0.0488931
0.0488641
0.0488236
0.0487569
0.0486651
0.0485313
0.0483483
0.0480893
0.0477372
0.0472482
0.0465894
0.0456998
0.0445211
0.0429702
0.0409579
0.0383795
0.0351166
0.031052
0.0260812
0.0201224
0.0131346
0.00506778
-0.00425101
-0.0154247
-0.0301746
-0.0514147
-0.0832194
-0.11748
-0.111377
-5.30681
-12.2764
-15.9079
-17.2667
-17.2016
-16.2716
-14.8573
-13.216
-11.5246
-9.89361
-8.38749
-7.03724
-5.85278
-4.83072
-3.96012
-3.22627
-2.61295
-2.10408
-1.68449
-1.34038
-1.05957
-0.831355
-0.646657
-0.497722
-0.378024
-0.28215
-0.205579
-0.144603
-0.096191
-0.0578393
-0.0275555
-0.00368494
0.0150814
0.0298046
0.041335
0.0503531
0.0573855
0.062875
0.067133
0.0704467
0.0730077
0.0749882
0.076523
0.0777023
0.0786166
0.0793265
0.0798692
0.0803054
0.080633
0.0809044
0.0811101
0.0812804
0.0814166
0.0815298
0.0816253
0.0817134
0.0817888
0.0818674
0.081931
0.0819971
0.0820497
0.0820984
0.0821375
0.0821712
0.0821972
0.0822213
0.0822351
0.0822503
0.0822507
0.0822482
0.0822246
0.0821909
0.0821295
0.0820441
0.0819164
0.0817411
0.0814949
0.081161
0.0807003
0.0800798
0.0792348
0.0781062
0.0765993
0.0746136
0.072015
0.0686514
0.0643486
0.0589111
0.0521441
0.0438721
0.0339633
0.0223504
0.00896875
-0.00644489
-0.0248243
-0.0489249
-0.0834563
-0.135154
-0.19111
-0.181978
-7.42451
-17.1308
-22.1653
-24.044
-23.9482
-22.6505
-20.6796
-18.3932
-16.0378
-13.767
-11.6703
-9.79081
-8.14224
-6.7198
-5.50819
-4.48691
-3.63341
-2.92527
-2.3414
-1.86258
-1.47185
-1.15434
-0.897385
-0.690202
-0.523709
-0.390366
-0.283883
-0.199099
-0.13179
-0.0784802
-0.0363871
-0.00321725
0.022854
0.0433037
0.0593101
0.071821
0.0815723
0.0891743
0.0950714
0.0996528
0.103195
0.10593
0.108047
0.109674
0.110931
0.111904
0.112648
0.113237
0.113682
0.114042
0.114316
0.114537
0.114711
0.114854
0.114971
0.115076
0.115163
0.11525
0.11532
0.115391
0.115446
0.115497
0.115537
0.11557
0.115594
0.115614
0.115623
0.115631
0.115622
0.115607
0.115567
0.11551
0.115417
0.115288
0.1151
0.114843
0.114487
0.114005
0.113345
0.11246
0.111265
0.109674
0.10756
0.10478
0.10115
0.0964556
0.0904542
0.0828739
0.0734428
0.0619163
0.0481142
0.0319501
0.0133644
-0.00794968
-0.0331602
-0.0658792
-0.112399
-0.182017
-0.257906
-0.247177
-9.53725
-21.9271
-28.3155
-30.6919
-30.5612
-28.9005
-26.382
-23.462
-20.4552
-17.5571
-14.8819
-12.4841
-10.3812
-8.56686
-7.02152
-5.71897
-4.63044
-3.72734
-2.98275
-2.37215
-1.87391
-1.46907
-1.14146
-0.877334
-0.665103
-0.495144
-0.359438
-0.251401
-0.165638
-0.0977275
-0.04411
-0.00186801
0.0313273
0.0573596
0.0777285
0.0936419
0.106041
0.115699
0.123191
0.129006
0.133502
0.136972
0.139654
0.141716
0.143307
0.144536
0.145474
0.146212
0.14677
0.147216
0.147556
0.147826
0.148038
0.148209
0.148348
0.148468
0.148567
0.148663
0.148738
0.148812
0.148871
0.148922
0.148963
0.148995
0.149017
0.149035
0.149039
0.14904
0.149022
0.148995
0.148939
0.148859
0.148736
0.148564
0.148319
0.147982
0.147518
0.14689
0.146037
0.144894
0.143356
0.141313
0.138605
0.135048
0.130409
0.124414
0.11675
0.107071
0.0950294
0.0803129
0.0626961
0.0420828
0.0184434
-0.00851031
-0.0400513
-0.0804067
-0.137155
-0.222003
-0.315361
-0.304901
-11.6436
-26.6456
-34.3254
-37.1726
-37.0028
-34.9853
-31.9312
-28.3924
-24.7502
-21.241
-18.0026
-15.1006
-12.5558
-10.3603
-8.49054
-6.91458
-5.59762
-4.50503
-3.60426
-2.86564
-2.26295
-1.77329
-1.37708
-1.05767
-0.801042
-0.595555
-0.431502
-0.300917
-0.197268
-0.115209
-0.0504288
0.000597097
0.0406871
0.0721197
0.0967068
0.115909
0.130866
0.142509
0.151541
0.158545
0.163961
0.168139
0.171367
0.173848
0.175759
0.177234
0.17836
0.179241
0.179909
0.180437
0.18084
0.181157
0.181406
0.181604
0.181763
0.181899
0.182009
0.182112
0.182193
0.182269
0.182331
0.182383
0.182425
0.182456
0.182476
0.182491
0.18249
0.182485
0.182458
0.18242
0.182348
0.182247
0.182094
0.181881
0.18158
0.181166
0.180597
0.179829
0.178788
0.177394
0.175524
0.173042
0.169757
0.165447
0.159828
0.152568
0.143288
0.131567
0.116984
0.0991595
0.0778281
0.0528936
0.0243858
-0.00789071
-0.0451577
-0.0919601
-0.156788
-0.253525
-0.361202
-0.353163
-13.7419
-31.264
-40.1606
-43.4484
-43.2357
-40.8695
-37.2942
-33.1546
-28.8967
-24.7961
-21.0131
-17.6239
-14.6523
-12.0889
-9.90594
-8.06609
-6.52868
-5.25327
-4.20181
-3.33969
-2.63628
-2.06483
-1.60249
-1.2298
-0.930412
-0.690709
-0.499368
-0.347085
-0.226232
-0.13057
-0.0550631
0.00439985
0.0511088
0.0877228
0.116355
0.138709
0.156116
0.16966
0.180165
0.188307
0.194602
0.199457
0.203206
0.206087
0.208304
0.210014
0.211319
0.212336
0.213107
0.213713
0.214177
0.214539
0.214823
0.215047
0.215226
0.215376
0.215496
0.215606
0.215692
0.21577
0.215834
0.215887
0.215929
0.21596
0.215978
0.215989
0.215984
0.215973
0.215938
0.215889
0.215802
0.215681
0.2155
0.215247
0.214892
0.214404
0.213736
0.212833
0.211611
0.209976
0.207786
0.204881
0.201041
0.196003
0.18944
0.18096
0.170119
0.156425
0.139383
0.118551
0.0936257
0.0645223
0.0313615
-0.00587747
-0.0481893
-0.100094
-0.170544
-0.275275
-0.393457
-0.390101
-15.8302
-35.7567
-45.7846
-49.4813
-49.223
-46.5182
-42.4391
-37.72
-32.8694
-28.2006
-23.8949
-20.0384
-16.6577
-13.7418
-11.2587
-9.16612
-7.4176
-5.96713
-4.77143
-3.7911
-2.99131
-2.34163
-1.81603
-1.39241
-1.05215
-0.779764
-0.562366
-0.389374
-0.25211
-0.143479
-0.0577507
0.00974716
0.0627558
0.104298
0.136776
0.162123
0.181857
0.197204
0.209105
0.218325
0.225453
0.230949
0.23519
0.238449
0.240956
0.242887
0.244361
0.245506
0.246376
0.247055
0.247576
0.24798
0.248296
0.248545
0.248743
0.248906
0.249036
0.249152
0.249241
0.249322
0.249387
0.249441
0.249483
0.249513
0.24953
0.249538
0.249529
0.249512
0.24947
0.24941
0.24931
0.249169
0.248961
0.248672
0.248265
0.247707
0.246943
0.245912
0.244516
0.242651
0.240156
0.236847
0.232477
0.226744
0.219277
0.209629
0.197293
0.181705
0.162303
0.138581
0.110201
0.0771031
0.0395293
-0.00228209
-0.0489117
-0.104479
-0.177884
-0.286281
-0.410535
-0.414012
-17.9057
-40.0936
-51.1591
-55.2333
-54.9289
-51.8976
-47.3346
-42.0606
-36.6439
-31.4332
-26.6299
-22.329
-18.5593
-15.3084
-12.5403
-10.2076
-8.25863
-6.64196
-5.30934
-4.21683
-3.32559
-2.6017
-2.01614
-1.54425
-1.16527
-0.86193
-0.61987
-0.42729
-0.274512
-0.153629
-0.0582502
0.016829
0.0757774
0.121962
0.15806
0.186225
0.208146
0.225186
0.238398
0.248629
0.256538
0.262634
0.267337
0.27095
0.273727
0.275865
0.277497
0.278762
0.279723
0.280471
0.281044
0.281488
0.281835
0.282106
0.282321
0.282497
0.282636
0.282757
0.28285
0.282932
0.282998
0.283052
0.283094
0.283123
0.283139
0.283145
0.283132
0.28311
0.283061
0.282991
0.282878
0.282719
0.282486
0.282161
0.281707
0.281082
0.280229
0.279075
0.277517
0.275433
0.272649
0.268959
0.264085
0.257694
0.249369
0.238613
0.224855
0.207467
0.185816
0.159337
0.127663
0.0907645
0.0490365
0.00305807
-0.0471495
-0.104911
-0.178508
-0.285959
-0.411308
-0.423403
-19.9638
-44.239
-56.244
-60.6669
-60.3181
-56.9748
-51.9507
-46.1494
-40.1965
-34.4738
-29.201
-24.4811
-20.3452
-16.7788
-13.7425
-11.1839
-9.04631
-7.27332
-5.81195
-4.61399
-3.63682
-2.84322
-2.20135
-1.68415
-1.26884
-0.936478
-0.671308
-0.460381
-0.293083
-0.160741
-0.056343
0.0258161
0.0903074
0.140821
0.180293
0.211079
0.235034
0.253649
0.268078
0.279247
0.28788
0.294533
0.299662
0.303603
0.30663
0.308959
0.310736
0.312112
0.313157
0.313968
0.31459
0.31507
0.315445
0.315738
0.315968
0.316156
0.316302
0.316427
0.316524
0.316607
0.316674
0.316728
0.316769
0.316798
0.316812
0.316816
0.3168
0.316773
0.316717
0.316639
0.316514
0.316338
0.316082
0.315724
0.315225
0.314538
0.313601
0.312333
0.310622
0.308335
0.30528
0.301231
0.295886
0.288876
0.279747
0.267947
0.252852
0.233766
0.209991
0.180906
0.146114
0.105629
0.0600189
0.0102802
-0.0427859
-0.101316
-0.172372
-0.274154
-0.395192
-0.417053
-21.9968
-48.1504
-60.9978
-65.7455
-65.3571
-61.7181
-56.2583
-49.9606
-43.5048
-37.3031
-31.5918
-26.4812
-22.0038
-18.1436
-14.8575
-12.0886
-9.77552
-7.85708
-6.27594
-4.97992
-3.92285
-3.06448
-2.3703
-1.81103
-1.36202
-1.00274
-0.716156
-0.488239
-0.307504
-0.164566
-0.051835
0.03686
0.106464
0.160967
0.203544
0.236743
0.262567
0.282627
0.298174
0.310203
0.319499
0.326661
0.33218
0.336421
0.339675
0.342179
0.344089
0.345565
0.346687
0.347555
0.34822
0.348734
0.349134
0.349446
0.349691
0.349888
0.350042
0.350171
0.35027
0.350354
0.350421
0.350475
0.350515
0.350543
0.350556
0.350558
0.35054
0.350509
0.350447
0.350361
0.350225
0.350033
0.349756
0.349367
0.348827
0.348083
0.347068
0.345695
0.343843
0.341367
0.338061
0.33368
0.327898
0.320314
0.310436
0.297666
0.281325