/*--------------------------------*- C++ -*----------------------------------*\
| =========                 |                                                 |
| \\      /  F ield         | OpenFOAM: The Open Source CFD Toolbox           |
|  \\    /   O peration     | Version:  v1906                                 |
|   \\  /    A nd           | Web:      www.OpenFOAM.com                      |
|    \\/     M anipulation  |                                                 |
\*---------------------------------------------------------------------------*/
FoamFile
{
    version     2.0;
    format      ascii;
    class       volScalarField;
    location    "1.5";
    object      pB;
}
// * * * * * * * * * * * * * * * * * * * * * * * * * * * * * * * * * * * * * //

dimensions      [1 1 -3 0 0 -1 0];


internalField   nonuniform List<scalar> 
4000
(
52.0065
85.5588
84.6392
68.0126
52.0581
36.793
25.7603
17.137
11.3641
7.18966
4.49571
2.62763
1.44984
0.655069
0.162744
-0.162951
-0.361712
-0.491187
-0.569164
-0.619362
-0.649229
-0.668287
-0.6795
-0.686605
-0.690718
-0.693307
-0.694764
-0.695671
-0.696155
-0.69645
-0.696587
-0.696673
-0.6967
-0.696712
-0.696702
-0.69668
-0.696657
-0.696633
-0.696606
-0.696579
-0.696543
-0.696515
-0.696481
-0.696458
-0.696434
-0.696412
-0.696385
-0.696368
-0.696338
-0.696332
-0.696316
-0.696314
-0.696311
-0.696307
-0.696299
-0.696287
-0.696269
-0.696247
-0.696221
-0.696205
-0.696185
-0.696191
-0.696189
-0.696208
-0.696216
-0.696235
-0.696241
-0.696253
-0.696253
-0.69626
-0.696255
-0.69626
-0.696261
-0.696266
-0.696268
-0.69627
-0.696277
-0.696285
-0.696296
-0.69631
-0.696306
-0.696302
-0.696265
-0.6962
-0.696064
-0.695819
-0.695379
-0.694586
-0.693196
-0.690746
-0.686534
-0.679366
-0.667547
-0.648523
-0.619751
-0.578585
-0.529436
-0.477714
-0.463668
-0.325526
53.2582
84.9494
83.9371
67.5557
51.699
36.5821
25.6124
17.0615
11.3207
7.17859
4.49916
2.64464
1.47289
0.683563
0.193615
-0.129982
-0.32785
-0.45654
-0.534196
-0.584108
-0.613864
-0.632819
-0.643993
-0.651061
-0.655162
-0.657737
-0.65919
-0.660093
-0.660576
-0.66087
-0.661008
-0.661094
-0.66112
-0.661132
-0.66112
-0.6611
-0.661075
-0.661053
-0.661024
-0.660998
-0.660962
-0.660933
-0.660899
-0.660876
-0.660852
-0.660831
-0.660803
-0.660787
-0.660757
-0.660751
-0.660735
-0.660733
-0.660729
-0.660725
-0.660717
-0.660706
-0.660687
-0.660666
-0.660639
-0.660625
-0.660604
-0.660611
-0.660609
-0.660628
-0.660635
-0.660654
-0.660659
-0.660671
-0.66067
-0.660678
-0.660673
-0.660679
-0.660679
-0.660686
-0.660687
-0.66069
-0.660696
-0.660705
-0.660714
-0.660729
-0.660724
-0.660721
-0.660684
-0.660619
-0.660485
-0.660241
-0.659803
-0.659015
-0.657632
-0.655195
-0.651006
-0.64388
-0.63213
-0.613237
-0.584684
-0.543947
-0.495371
-0.444419
-0.425622
-0.275038
54.0386
84.0131
82.8116
66.7733
51.0817
36.2015
25.3475
16.918
11.2379
7.15142
4.49986
2.66917
1.50923
0.729611
0.24439
-0.0754056
-0.271458
-0.398706
-0.475692
-0.52507
-0.554588
-0.573348
-0.584437
-0.591435
-0.595506
-0.598057
-0.5995
-0.600395
-0.600876
-0.601167
-0.601306
-0.601391
-0.601417
-0.601429
-0.601415
-0.601395
-0.601369
-0.601347
-0.601318
-0.601292
-0.601255
-0.601227
-0.601192
-0.60117
-0.601144
-0.601125
-0.601097
-0.601082
-0.601051
-0.601045
-0.601028
-0.601027
-0.601022
-0.601019
-0.601009
-0.600999
-0.60098
-0.60096
-0.600933
-0.60092
-0.6009
-0.600907
-0.600905
-0.600924
-0.600931
-0.600949
-0.600952
-0.600964
-0.600962
-0.60097
-0.600965
-0.600972
-0.600973
-0.600981
-0.600983
-0.600986
-0.60099
-0.601
-0.601008
-0.601023
-0.601018
-0.601015
-0.600978
-0.600915
-0.600782
-0.600541
-0.600107
-0.599329
-0.59796
-0.59555
-0.591405
-0.584357
-0.57274
-0.554081
-0.52591
-0.485855
-0.438186
-0.388146
-0.363647
-0.193246
53.9279
82.5642
81.1504
65.5617
50.1275
35.582
24.9098
16.6566
11.0718
7.06723
4.45964
2.66437
1.52316
0.75809
0.28043
-0.0336298
-0.226748
-0.351805
-0.427697
-0.476259
-0.505381
-0.523843
-0.534789
-0.541679
-0.5457
-0.548212
-0.549639
-0.550521
-0.550997
-0.551285
-0.551423
-0.551508
-0.551533
-0.551544
-0.551528
-0.551508
-0.551482
-0.55146
-0.551429
-0.551404
-0.551366
-0.551338
-0.551302
-0.551282
-0.551255
-0.551237
-0.551208
-0.551194
-0.551163
-0.551157
-0.551139
-0.551139
-0.551131
-0.55113
-0.551119
-0.551111
-0.55109
-0.551072
-0.551044
-0.551033
-0.551013
-0.551021
-0.55102
-0.551039
-0.551044
-0.551062
-0.551063
-0.551074
-0.551071
-0.55108
-0.551075
-0.551083
-0.551085
-0.551095
-0.551096
-0.551101
-0.551103
-0.551113
-0.55112
-0.551134
-0.551129
-0.551127
-0.551091
-0.55103
-0.550899
-0.550663
-0.550236
-0.549473
-0.548125
-0.545757
-0.541681
-0.534755
-0.523343
-0.505035
-0.477433
-0.438346
-0.391934
-0.342927
-0.311721
-0.114782
52.9744
80.571
78.9738
63.9241
48.8456
34.724
24.3021
16.2761
10.8221
6.92422
4.377
2.6282
1.51282
0.766958
0.299787
-0.006654
-0.195675
-0.317806
-0.392157
-0.439624
-0.468184
-0.486243
-0.496984
-0.503727
-0.507676
-0.510135
-0.511537
-0.512403
-0.512872
-0.513155
-0.513292
-0.513376
-0.513399
-0.51341
-0.513391
-0.513371
-0.513343
-0.513322
-0.51329
-0.513265
-0.513226
-0.513199
-0.513162
-0.513142
-0.513114
-0.513099
-0.513069
-0.513055
-0.513024
-0.513018
-0.513
-0.512999
-0.51299
-0.512989
-0.512977
-0.512971
-0.512949
-0.512933
-0.512905
-0.512895
-0.512877
-0.512886
-0.512885
-0.512904
-0.512908
-0.512924
-0.512923
-0.512933
-0.512929
-0.512938
-0.512933
-0.512943
-0.512946
-0.512958
-0.51296
-0.512965
-0.512966
-0.512976
-0.512981
-0.512995
-0.51299
-0.512988
-0.512954
-0.512895
-0.512767
-0.512538
-0.512121
-0.511376
-0.510059
-0.507747
-0.503765
-0.497004
-0.485867
-0.468026
-0.441172
-0.403308
-0.358456
-0.31053
-0.27197
-0.046174
51.347
78.0388
76.3105
61.8795
47.2555
33.641
23.537
15.7863
10.4984
6.73086
4.26035
2.56862
1.4862
0.764036
0.310324
0.0133466
-0.170397
-0.288874
-0.361226
-0.407319
-0.435143
-0.452693
-0.463165
-0.469722
-0.473575
-0.475967
-0.477336
-0.47818
-0.47864
-0.478917
-0.479052
-0.479134
-0.479156
-0.479165
-0.479144
-0.479123
-0.479094
-0.479072
-0.479039
-0.479014
-0.478975
-0.478948
-0.47891
-0.478891
-0.478862
-0.478848
-0.478818
-0.478806
-0.478774
-0.478768
-0.478748
-0.478748
-0.478737
-0.478737
-0.478724
-0.478719
-0.478697
-0.478683
-0.478655
-0.478647
-0.47863
-0.47864
-0.478639
-0.478659
-0.47866
-0.478675
-0.478671
-0.478679
-0.478674
-0.478684
-0.47868
-0.478692
-0.478695
-0.478711
-0.478712
-0.478719
-0.478717
-0.478727
-0.47873
-0.478743
-0.478739
-0.478737
-0.478705
-0.478649
-0.478525
-0.478304
-0.4779
-0.477179
-0.475901
-0.473659
-0.469796
-0.463242
-0.45245
-0.435188
-0.409251
-0.372844
-0.329806
-0.28299
-0.23683
0.0162448
49.1862
74.9845
73.1857
59.4459
45.3732
32.3435
22.6233
15.1937
10.1062
6.49148
4.1137
2.4892
1.44676
0.752667
0.315362
0.0296524
-0.147631
-0.261737
-0.331625
-0.376064
-0.402974
-0.41991
-0.430044
-0.436375
-0.440108
-0.442419
-0.443746
-0.444563
-0.445009
-0.445279
-0.445411
-0.445491
-0.445511
-0.445519
-0.445495
-0.445473
-0.445441
-0.44542
-0.445385
-0.445361
-0.44532
-0.445294
-0.445256
-0.445237
-0.445207
-0.445195
-0.445165
-0.445153
-0.445122
-0.445115
-0.445094
-0.445094
-0.445082
-0.445082
-0.445068
-0.445064
-0.445042
-0.44503
-0.445002
-0.444996
-0.44498
-0.444991
-0.444991
-0.44501
-0.445011
-0.445024
-0.445016
-0.445023
-0.445017
-0.445027
-0.445024
-0.445037
-0.445042
-0.44506
-0.445063
-0.44507
-0.445066
-0.445075
-0.445077
-0.445089
-0.445085
-0.445084
-0.445054
-0.445002
-0.444883
-0.444671
-0.444283
-0.44359
-0.442359
-0.440201
-0.436482
-0.430176
-0.419796
-0.403221
-0.378364
-0.343623
-0.302622
-0.256968
-0.203352
0.0728468
46.6011
71.4324
69.6227
56.6407
43.2127
30.8409
21.5676
14.5025
9.64845
6.208
3.93838
2.3909
1.39525
0.733435
0.315405
0.0427188
-0.126934
-0.235964
-0.302921
-0.345431
-0.371242
-0.387457
-0.397185
-0.403251
-0.406837
-0.409052
-0.410328
-0.411113
-0.411543
-0.411803
-0.411931
-0.412009
-0.412026
-0.412033
-0.412005
-0.411982
-0.411949
-0.411927
-0.41189
-0.411866
-0.411825
-0.411799
-0.41176
-0.411743
-0.411712
-0.411701
-0.411671
-0.41166
-0.411629
-0.411621
-0.4116
-0.411599
-0.411585
-0.411586
-0.411571
-0.411568
-0.411546
-0.411536
-0.411509
-0.411505
-0.411491
-0.411503
-0.411503
-0.411522
-0.41152
-0.411531
-0.411521
-0.411525
-0.411518
-0.411529
-0.411526
-0.411542
-0.411549
-0.411569
-0.411573
-0.41158
-0.411575
-0.411583
-0.411583
-0.411595
-0.41159
-0.41159
-0.411563
-0.411515
-0.411401
-0.411201
-0.410831
-0.410171
-0.408995
-0.406935
-0.403384
-0.397366
-0.387464
-0.371678
-0.348057
-0.315173
-0.276403
-0.232012
-0.171514
0.122014
43.6795
67.4134
65.6463
53.483
40.7886
29.1429
20.3769
13.7171
9.12795
5.88219
3.73549
2.27437
1.33202
0.706556
0.310567
0.0526003
-0.108281
-0.211545
-0.275113
-0.31542
-0.339949
-0.355338
-0.36459
-0.37035
-0.373765
-0.375869
-0.377084
-0.377831
-0.378242
-0.378491
-0.378614
-0.378688
-0.378703
-0.378707
-0.378676
-0.378652
-0.378616
-0.378593
-0.378555
-0.378531
-0.378489
-0.378464
-0.378425
-0.378407
-0.378376
-0.378366
-0.378337
-0.378327
-0.378295
-0.378287
-0.378265
-0.378264
-0.378248
-0.378248
-0.378233
-0.378231
-0.37821
-0.378202
-0.378176
-0.378173
-0.378161
-0.378174
-0.378174
-0.378193
-0.37819
-0.378198
-0.378185
-0.378187
-0.378179
-0.37819
-0.378189
-0.378206
-0.378215
-0.378238
-0.378242
-0.37825
-0.378244
-0.37825
-0.378248
-0.378259
-0.378255
-0.378256
-0.378232
-0.378188
-0.378082
-0.377894
-0.377545
-0.376921
-0.375808
-0.37386
-0.370499
-0.364807
-0.355446
-0.340548
-0.318308
-0.287452
-0.25109
-0.208131
-0.141802
0.16225
40.4919
62.9632
61.2829
49.9941
38.1168
27.261
19.0589
12.8428
8.54807
5.51618
3.50636
2.14043
1.25759
0.672351
0.301051
0.0594321
-0.0915774
-0.188409
-0.248142
-0.285981
-0.309051
-0.32351
-0.332218
-0.337632
-0.340848
-0.342828
-0.343972
-0.344675
-0.345063
-0.345299
-0.345415
-0.345485
-0.345497
-0.345498
-0.345465
-0.345439
-0.345401
-0.345377
-0.345338
-0.345313
-0.345271
-0.345246
-0.345207
-0.34519
-0.345158
-0.345149
-0.34512
-0.34511
-0.345079
-0.345071
-0.345048
-0.345046
-0.345028
-0.345028
-0.345013
-0.345011
-0.344991
-0.344985
-0.34496
-0.34496
-0.344949
-0.344963
-0.344964
-0.344982
-0.344977
-0.344983
-0.344967
-0.344967
-0.344957
-0.344969
-0.344968
-0.344987
-0.344998
-0.345024
-0.34503
-0.345038
-0.345029
-0.345035
-0.345031
-0.345041
-0.345037
-0.345039
-0.345018
-0.344979
-0.344881
-0.344706
-0.344381
-0.343799
-0.342755
-0.340931
-0.337784
-0.332454
-0.323695
-0.309776
-0.289046
-0.260373
-0.226577
-0.185302
-0.114636
0.192661
37.0938
58.1204
56.561
46.1975
35.2145
25.2074
17.622
11.8852
7.91252
5.11241
3.25253
1.99007
1.17258
0.631203
0.287098
0.0633749
-0.0767164
-0.166477
-0.221951
-0.257064
-0.278507
-0.291934
-0.300031
-0.305061
-0.308053
-0.309893
-0.310957
-0.311611
-0.311972
-0.312192
-0.312301
-0.312366
-0.312375
-0.312373
-0.312337
-0.312308
-0.312268
-0.312243
-0.312202
-0.312177
-0.312135
-0.31211
-0.312071
-0.312054
-0.312022
-0.312014
-0.311985
-0.311977
-0.311946
-0.311937
-0.311913
-0.31191
-0.311891
-0.311891
-0.311874
-0.311874
-0.311855
-0.31185
-0.311827
-0.311828
-0.31182
-0.311834
-0.311835
-0.311853
-0.311846
-0.311849
-0.31183
-0.311828
-0.311818
-0.311829
-0.31183
-0.311851
-0.311864
-0.311892
-0.311899
-0.311907
-0.311898
-0.311901
-0.311896
-0.311906
-0.311902
-0.311905
-0.311887
-0.311854
-0.311764
-0.311604
-0.311304
-0.310768
-0.309802
-0.308114
-0.3052
-0.300268
-0.292165
-0.279311
-0.260208
-0.233857
-0.20277
-0.163508
-0.0903498
0.212858
33.5289
52.9246
51.5104
42.1179
32.0997
22.9955
16.0751
10.8505
7.22535
4.67355
2.97569
1.82439
1.07765
0.583543
0.268972
0.0645959
-0.0635942
-0.145679
-0.196493
-0.228635
-0.248291
-0.26059
-0.268014
-0.272621
-0.275365
-0.277051
-0.278026
-0.278624
-0.278956
-0.279158
-0.279258
-0.279317
-0.279322
-0.279317
-0.279278
-0.279247
-0.279205
-0.279178
-0.279136
-0.27911
-0.279068
-0.279044
-0.279005
-0.278988
-0.278956
-0.278948
-0.27892
-0.278912
-0.278881
-0.278872
-0.278847
-0.278844
-0.278822
-0.278822
-0.278805
-0.278805
-0.278787
-0.278784
-0.278763
-0.278766
-0.278759
-0.278774
-0.278775
-0.278792
-0.278784
-0.278785
-0.278763
-0.278759
-0.278748
-0.278759
-0.278761
-0.278783
-0.278798
-0.278829
-0.278838
-0.278846
-0.278835
-0.278837
-0.27883
-0.278839
-0.278835
-0.27884
-0.278826
-0.278798
-0.278717
-0.278574
-0.278302
-0.277814
-0.276932
-0.275391
-0.27273
-0.268228
-0.260835
-0.249122
-0.23175
-0.207845
-0.179604
-0.142746
-0.0691812
0.222842
29.8318
47.416
46.1626
37.7817
28.7917
20.6396
14.4281
9.74546
6.49096
4.20256
2.67771
1.6446
0.973568
0.529855
0.246972
0.0632841
-0.0520951
-0.125943
-0.171721
-0.200663
-0.218383
-0.229461
-0.236153
-0.240302
-0.242775
-0.244293
-0.245171
-0.245709
-0.246007
-0.24619
-0.246279
-0.246332
-0.246332
-0.246323
-0.246282
-0.246248
-0.246204
-0.246176
-0.246132
-0.246106
-0.246063
-0.24604
-0.246002
-0.245985
-0.245952
-0.245944
-0.245917
-0.24591
-0.24588
-0.24587
-0.245844
-0.245839
-0.245817
-0.245815
-0.245798
-0.245799
-0.245782
-0.245781
-0.245761
-0.245766
-0.24576
-0.245776
-0.245777
-0.245794
-0.245784
-0.245782
-0.245758
-0.245752
-0.24574
-0.245752
-0.245754
-0.245778
-0.245795
-0.245829
-0.245838
-0.245846
-0.245834
-0.245834
-0.245827
-0.245834
-0.245831
-0.245838
-0.245827
-0.245805
-0.245734
-0.245608
-0.245366
-0.24493
-0.244138
-0.242755
-0.240365
-0.236322
-0.229685
-0.219183
-0.203637
-0.182287
-0.157021
-0.123005
-0.0512493
0.222942
26.03
41.6341
40.5502
33.2163
25.3108
18.1547
12.6911
8.57729
5.71409
3.70261
2.36063
1.45204
0.86118
0.470686
0.221436
0.0596575
-0.042084
-0.107181
-0.147582
-0.173112
-0.188757
-0.198531
-0.204437
-0.208095
-0.210275
-0.211614
-0.212385
-0.212858
-0.213119
-0.21328
-0.213357
-0.213403
-0.213398
-0.213385
-0.213342
-0.213306
-0.213258
-0.213229
-0.213184
-0.213158
-0.213115
-0.213092
-0.213054
-0.213037
-0.213005
-0.212997
-0.21297
-0.212963
-0.212934
-0.212923
-0.212897
-0.212891
-0.212867
-0.212865
-0.212847
-0.212849
-0.212832
-0.212833
-0.212815
-0.212822
-0.212817
-0.212834
-0.212835
-0.21285
-0.212839
-0.212835
-0.212809
-0.212801
-0.212789
-0.212801
-0.212803
-0.212829
-0.212848
-0.212884
-0.212894
-0.212902
-0.212889
-0.212888
-0.212879
-0.212886
-0.212883
-0.212892
-0.212884
-0.212869
-0.212809
-0.2127
-0.212489
-0.212109
-0.211413
-0.210197
-0.208094
-0.204537
-0.198698
-0.18947
-0.175831
-0.157135
-0.134963
-0.104253
-0.0365433
0.213765
22.146
35.618
34.7066
28.4504
21.6783
15.5566
10.8751
7.35357
4.89975
3.17711
2.02667
1.24817
0.741413
0.406641
0.192747
0.0539625
-0.0334061
-0.0892931
-0.12401
-0.14594
-0.159386
-0.16778
-0.17285
-0.175987
-0.177856
-0.179002
-0.179661
-0.180064
-0.180284
-0.180423
-0.180486
-0.180523
-0.180513
-0.180497
-0.18045
-0.180412
-0.180362
-0.180331
-0.180285
-0.180259
-0.180215
-0.180193
-0.180156
-0.180139
-0.180106
-0.180099
-0.180072
-0.180066
-0.180037
-0.180026
-0.179999
-0.179992
-0.179967
-0.179964
-0.179946
-0.179947
-0.179932
-0.179935
-0.179918
-0.179926
-0.179923
-0.17994
-0.17994
-0.179955
-0.179943
-0.179937
-0.179909
-0.1799
-0.179887
-0.179899
-0.179902
-0.179929
-0.17995
-0.179987
-0.179999
-0.180006
-0.179992
-0.17999
-0.17998
-0.179987
-0.179985
-0.179995
-0.179991
-0.179982
-0.179933
-0.179844
-0.179666
-0.179343
-0.178748
-0.177707
-0.175905
-0.172858
-0.167854
-0.159954
-0.148294
-0.132336
-0.113371
-0.0864302
-0.0249248
0.196143
18.1978
29.4055
28.6664
23.5134
17.916
12.8618
8.99139
6.08223
4.05325
2.62966
1.67815
1.03455
0.615271
0.338377
0.161322
0.0464712
-0.0258887
-0.0721666
-0.100935
-0.119099
-0.130236
-0.137184
-0.141376
-0.143966
-0.145506
-0.146451
-0.146989
-0.147318
-0.147496
-0.147609
-0.147657
-0.147686
-0.14767
-0.147649
-0.147601
-0.14756
-0.147508
-0.147476
-0.147429
-0.147402
-0.147358
-0.147337
-0.1473
-0.147283
-0.14725
-0.147243
-0.147216
-0.14721
-0.147182
-0.147171
-0.147143
-0.147136
-0.147109
-0.147105
-0.147087
-0.147089
-0.147074
-0.147078
-0.147063
-0.147072
-0.14707
-0.147087
-0.147087
-0.147102
-0.147089
-0.147081
-0.147051
-0.147041
-0.147027
-0.147039
-0.147043
-0.147071
-0.147094
-0.147133
-0.147145
-0.147152
-0.147137
-0.147134
-0.147123
-0.147129
-0.147128
-0.14714
-0.14714
-0.147138
-0.1471
-0.14703
-0.146886
-0.146624
-0.146134
-0.145276
-0.143787
-0.141269
-0.137134
-0.130608
-0.120988
-0.107839
-0.0921818
-0.0694518
-0.0161366
0.171091
14.2008
23.0341
22.4645
18.4353
14.0466
10.087
7.05165
4.77152
3.1801
2.06401
1.31756
0.812831
0.48382
0.266595
0.127614
0.0374779
-0.0193434
-0.0556784
-0.0782746
-0.0925343
-0.101273
-0.106718
-0.109996
-0.112017
-0.113215
-0.113948
-0.114361
-0.114613
-0.114746
-0.114833
-0.114865
-0.114884
-0.114862
-0.114837
-0.114786
-0.114743
-0.114688
-0.114655
-0.114607
-0.114579
-0.114537
-0.114515
-0.114479
-0.114462
-0.114429
-0.114422
-0.114395
-0.11439
-0.114362
-0.114351
-0.114322
-0.114314
-0.114287
-0.114281
-0.114263
-0.114265
-0.114251
-0.114256
-0.114242
-0.114253
-0.114251
-0.114268
-0.114268
-0.114282
-0.114268
-0.114259
-0.114228
-0.114217
-0.114203
-0.114215
-0.114219
-0.114248
-0.114272
-0.114312
-0.114325
-0.114332
-0.114316
-0.114313
-0.114301
-0.114306
-0.114306
-0.11432
-0.114325
-0.114329
-0.114303
-0.114253
-0.114144
-0.113944
-0.113562
-0.112893
-0.111728
-0.109757
-0.106515
-0.101402
-0.093872
-0.0835909
-0.0713275
-0.0532055
-0.00981635
0.139774
10.1677
16.5398
16.1364
13.2471
10.0934
7.24962
5.06801
3.42992
2.28603
1.48406
0.94747
0.584734
0.348183
0.192038
0.0920991
0.0272963
-0.0135684
-0.0396962
-0.0559445
-0.0661898
-0.0724578
-0.0763556
-0.0786906
-0.0801262
-0.0809693
-0.0814851
-0.0817686
-0.0819402
-0.0820259
-0.0820846
-0.0820997
-0.0821081
-0.0820804
-0.0820508
-0.0819974
-0.0819524
-0.0818959
-0.0818613
-0.0818125
-0.0817848
-0.0817423
-0.0817213
-0.0816859
-0.0816687
-0.0816356
-0.0816276
-0.0816012
-0.0815959
-0.0815689
-0.0815581
-0.0815288
-0.0815196
-0.0814917
-0.0814855
-0.0814665
-0.0814685
-0.081455
-0.0814612
-0.0814489
-0.0814596
-0.0814584
-0.0814754
-0.0814745
-0.0814877
-0.081474
-0.0814637
-0.0814319
-0.0814206
-0.0814065
-0.0814185
-0.0814224
-0.0814517
-0.0814777
-0.0815183
-0.0815316
-0.0815386
-0.0815222
-0.0815178
-0.081506
-0.0815112
-0.0815118
-0.0815282
-0.0815366
-0.0815472
-0.0815329
-0.0815034
-0.0814308
-0.081294
-0.0810237
-0.0805478
-0.0797148
-0.0783033
-0.0759761
-0.0723059
-0.0669046
-0.0595374
-0.0507385
-0.0375558
-0.00551193
0.103469
6.11011
9.9585
9.71792
7.97977
6.07989
4.36729
3.0528
2.06612
1.37691
0.893823
0.570529
0.352037
0.209525
0.115477
0.0552788
0.0162551
-0.00835105
-0.0240804
-0.0338533
-0.0400043
-0.0437494
-0.0460679
-0.0474395
-0.0482767
-0.0487576
-0.0490505
-0.0492012
-0.0492907
-0.0493277
-0.0493574
-0.0493547
-0.049352
-0.0493181
-0.049284
-0.0492283
-0.0491815
-0.049123
-0.0490874
-0.0490381
-0.0490101
-0.048968
-0.0489474
-0.0489123
-0.0488951
-0.0488617
-0.0488535
-0.0488273
-0.0488219
-0.0487954
-0.0487847
-0.0487551
-0.0487452
-0.0487168
-0.0487097
-0.0486902
-0.0486922
-0.048679
-0.0486859
-0.0486746
-0.0486856
-0.0486845
-0.0487012
-0.0487
-0.0487126
-0.0486989
-0.0486879
-0.0486557
-0.0486443
-0.0486302
-0.0486421
-0.048646
-0.0486757
-0.0487025
-0.0487436
-0.0487572
-0.048764
-0.0487473
-0.0487424
-0.0487304
-0.0487355
-0.0487372
-0.048756
-0.0487684
-0.0487857
-0.0487832
-0.0487743
-0.0487382
-0.0486661
-0.048509
-0.04823
-0.0477346
-0.0468925
-0.0454949
-0.0432894
-0.040044
-0.0356236
-0.0303413
-0.0223472
-0.00269966
0.0635427
2.03811
3.32511
3.24513
2.66491
2.03015
1.4579
1.01857
0.688945
0.458703
0.297377
0.189456
0.116564
0.069041
0.0377035
0.017669
0.00469424
-0.00347093
-0.00868595
-0.0119061
-0.0139147
-0.0151051
-0.015825
-0.0162211
-0.0164525
-0.0165663
-0.0166333
-0.0166492
-0.0166554
-0.0166427
-0.0166426
-0.0166215
-0.0166072
-0.0165669
-0.0165284
-0.0164704
-0.0164222
-0.016362
-0.0163254
-0.0162757
-0.0162476
-0.016206
-0.0161857
-0.0161508
-0.0161336
-0.0160999
-0.0160913
-0.0160652
-0.0160598
-0.0160337
-0.0160233
-0.0159934
-0.0159831
-0.0159543
-0.0159463
-0.0159262
-0.0159282
-0.0159151
-0.0159225
-0.0159119
-0.0159229
-0.0159215
-0.0159378
-0.0159362
-0.0159482
-0.0159348
-0.0159237
-0.0158914
-0.0158804
-0.0158663
-0.0158781
-0.0158819
-0.0159117
-0.0159391
-0.0159802
-0.015994
-0.0160005
-0.0159836
-0.0159785
-0.0159666
-0.0159719
-0.0159748
-0.015996
-0.0160123
-0.0160362
-0.0160454
-0.0160572
-0.016058
-0.0160512
-0.0160085
-0.0159285
-0.0157742
-0.0155073
-0.0150485
-0.0143207
-0.0132479
-0.0117941
-0.0100604
-0.0074094
-0.00080368
0.0214194
-2.0386
-3.32559
-3.24577
-2.66583
-2.0317
-1.46054
-1.02201
-0.692707
-0.462537
-0.301144
-0.193
-0.119837
-0.072053
-0.0404744
-0.0202042
-0.00703979
0.00129715
0.00663552
0.00999417
0.0121441
0.0135184
0.0144033
0.0149866
0.0153631
0.0156177
0.0157777
0.0158972
0.0159747
0.0160376
0.0160681
0.016108
0.0161343
0.016181
0.0162239
0.016284
0.0163334
0.0163951
0.0164325
0.0164823
0.0165106
0.0165516
0.0165716
0.0166064
0.0166237
0.0166576
0.0166668
0.0166927
0.0166984
0.0167241
0.0167342
0.0167641
0.0167748
0.0168038
0.0168126
0.0168332
0.0168314
0.0168445
0.0168369
0.0168471
0.0168364
0.0168383
0.0168225
0.0168246
0.0168131
0.016826
0.0168367
0.0168686
0.0168792
0.016893
0.0168813
0.0168777
0.016848
0.0168205
0.0167797
0.016766
0.0167597
0.0167766
0.0167818
0.0167933
0.0167876
0.0167834
0.0167597
0.0167395
0.0167092
0.0166883
0.0166559
0.0166183
0.0165597
0.0164874
0.0163678
0.0161797
0.0158694
0.0153862
0.0146319
0.0135266
0.0120071
0.0101816
0.0074372
0.000783497
-0.0214399
-6.11059
-9.95897
-9.71855
-7.9807
-6.08146
-4.36994
-3.05625
-2.0699
-1.38075
-0.897593
-0.574074
-0.35531
-0.212535
-0.118246
-0.0578116
-0.0185982
0.00617998
0.0220333
0.0319452
0.0382373
0.0421652
0.044648
0.0462057
0.047187
0.047808
0.0481938
0.048448
0.0486087
0.048722
0.0487831
0.0488419
0.0488804
0.0489336
0.0489807
0.049043
0.0490931
0.0491561
0.0491941
0.0492439
0.0492722
0.0493126
0.0493323
0.0493673
0.0493846
0.0494188
0.0494286
0.0494543
0.0494603
0.0494858
0.0494956
0.0495254
0.0495363
0.0495652
0.0495748
0.0495959
0.0495943
0.0496076
0.0496002
0.0496103
0.0496003
0.0496029
0.0495878
0.0495903
0.0495792
0.0495914
0.0496014
0.0496324
0.0496421
0.0496556
0.0496441
0.0496407
0.0496114
0.0495841
0.0495438
0.0495305
0.0495245
0.0495411
0.0495462
0.0495571
0.0495507
0.0495451
0.0495189
0.0494949
0.0494584
0.049426
0.0493732
0.0492991
0.0491754
0.0489886
0.0486698
0.0481405
0.0472547
0.0458324
0.0436003
0.0403222
0.035836
0.0304624
0.0223753
0.00267999
-0.0635628
-10.1682
-16.5403
-16.137
-13.248
-10.095
-7.2523
-5.07148
-3.43371
-2.28988
-1.48784
-0.951017
-0.588007
-0.351191
-0.194804
-0.0946274
-0.0296344
0.0114027
0.0376557
0.0540439
0.0644297
0.0708789
0.0749393
0.0774583
0.0790359
0.0800178
0.0806263
0.0810131
0.081256
0.0814191
0.0815107
0.0815884
0.0816391
0.0816988
0.0817499
0.0818142
0.0818649
0.0819288
0.0819673
0.0820168
0.082045
0.0820849
0.0821044
0.0821396
0.082157
0.0821914
0.0822019
0.0822275
0.082234
0.0822593
0.0822687
0.0822982
0.0823093
0.0823379
0.0823481
0.0823698
0.0823685
0.0823821
0.0823751
0.0823854
0.0823764
0.0823799
0.0823656
0.0823686
0.0823579
0.0823691
0.0823779
0.0824077
0.0824164
0.0824293
0.0824179
0.0824148
0.0823862
0.0823595
0.0823202
0.0823074
0.0823016
0.0823179
0.0823226
0.0823327
0.0823254
0.0823182
0.0822895
0.0822618
0.0822194
0.0821758
0.0821029
0.0819928
0.0818048
0.0815046
0.0809886
0.0801215
0.0786659
0.0763132
0.072616
0.0671817
0.0597486
0.0508592
0.0375846
0.00549331
-0.103489
-14.2012
-23.0345
-22.4651
-18.4363
-14.0483
-10.0897
-7.05516
-4.77534
-3.18397
-2.06779
-1.32111
-0.816104
-0.486824
-0.269356
-0.130135
-0.0398086
0.0171857
0.0536475
0.076385
0.0907844
0.099702
0.105307
0.108766
0.110926
0.11226
0.113086
0.113602
0.113925
0.114137
0.114259
0.114355
0.114418
0.114484
0.114539
0.114606
0.114656
0.114721
0.11476
0.114809
0.114837
0.114876
0.114896
0.114931
0.114949
0.114983
0.114995
0.11502
0.115027
0.115052
0.115061
0.11509
0.115101
0.11513
0.11514
0.115163
0.115162
0.115176
0.115169
0.11518
0.115172
0.115177
0.115164
0.115167
0.115157
0.115167
0.115174
0.115202
0.11521
0.115222
0.115211
0.115208
0.11518
0.115154
0.115116
0.115104
0.115099
0.115115
0.115119
0.115128
0.115119
0.11511
0.115079
0.115048
0.115
0.114945
0.114853
0.114708
0.114457
0.114045
0.113335
0.112136
0.11012
0.106852
0.101711
0.0941475
0.0838005
0.0714477
0.0532353
0.00979928
-0.139792
-18.1982
-29.4059
-28.667
-23.5144
-17.9177
-12.8646
-8.99493
-6.08608
-4.05714
-2.63345
-1.68171
-1.03782
-0.618269
-0.34113
-0.163836
-0.0487923
0.0237414
0.0701483
0.0990593
0.117362
0.128675
0.13578
0.140148
0.142874
0.144548
0.145584
0.146226
0.146626
0.146885
0.147037
0.147151
0.147226
0.147298
0.147357
0.147425
0.147476
0.14754
0.147579
0.147628
0.147655
0.147694
0.147714
0.14775
0.147767
0.147802
0.147814
0.14784
0.147847
0.147872
0.147881
0.14791
0.147921
0.147948
0.147959
0.147982
0.147981
0.147996
0.147991
0.148003
0.147996
0.148002
0.14799
0.147994
0.147983
0.147992
0.147998
0.148024
0.14803
0.148041
0.14803
0.148028
0.148001
0.147977
0.14794
0.147929
0.147924
0.147939
0.147942
0.14795
0.14794
0.147929
0.147896
0.147861
0.147808
0.147743
0.147631
0.147452
0.147139
0.146619
0.14572
0.144197
0.141633
0.13747
0.130915
0.121262
0.108047
0.0923012
0.0694829
0.0161216
-0.171108
-22.1463
-35.6183
-34.7072
-28.4515
-21.6801
-15.5595
-10.8787
-7.35746
-4.90367
-3.18092
-2.03023
-1.25144
-0.744405
-0.409387
-0.19525
-0.056272
0.0312716
0.0872901
0.122153
0.14422
0.157837
0.166384
0.171626
0.174894
0.176893
0.178131
0.178892
0.179367
0.179671
0.179851
0.179983
0.180069
0.180148
0.180209
0.180279
0.18033
0.180394
0.180433
0.180481
0.180508
0.180546
0.180566
0.180602
0.18062
0.180655
0.180668
0.180694
0.180702
0.180727
0.180736
0.180764
0.180774
0.180801
0.180812
0.180835
0.180835
0.180851
0.180847
0.18086
0.180855
0.180862
0.180851
0.180855
0.180845
0.180853
0.180856
0.18088
0.180884
0.180894
0.180883
0.180881
0.180856
0.180833
0.180799
0.180789
0.180784
0.180798
0.1808
0.180806
0.180795
0.180783
0.180747
0.180709
0.180651
0.180576
0.180446
0.180233
0.179862
0.179236
0.178154
0.176316
0.173222
0.16819
0.160259
0.148565
0.132541
0.11349
0.0864628
0.0249124
-0.196158
-26.0302
-41.6344
-40.5507
-33.2174
-25.3127
-18.1576
-12.6948
-8.58123
-5.71804
-3.70644
-2.3642
-1.45531
-0.864165
-0.473423
-0.223927
-0.0619535
0.0399643
0.105196
0.145744
0.171411
0.187223
0.197145
0.203217
0.207
0.209307
0.210736
0.21161
0.212155
0.212503
0.21271
0.212858
0.212956
0.21304
0.213104
0.213175
0.213226
0.21329
0.213329
0.213375
0.213402
0.21344
0.21346
0.213497
0.213515
0.21355
0.213564
0.21359
0.213599
0.213624
0.213632
0.213659
0.21367
0.213696
0.213707
0.21373
0.213731
0.213747
0.213744
0.213759
0.213756
0.213765
0.213755
0.213759
0.213749
0.213755
0.213756
0.213778
0.21378
0.213789
0.213778
0.213777
0.213753
0.213732
0.2137
0.213691
0.213686
0.213699
0.213701
0.213705
0.213692
0.213677
0.21364
0.213599
0.213536
0.213451
0.213304
0.21306
0.212631
0.211905
0.210647
0.208507
0.204903
0.199033
0.189773
0.176098
0.157336
0.135081
0.104287
0.036534
-0.213778
-29.8319
-47.4162
-46.1631
-37.7828
-28.7937
-20.6426
-14.4318
-9.74945
-6.49496
-4.2064
-2.68129
-1.64787
-0.976546
-0.532582
-0.24945
-0.065565
0.0499921
0.123978
0.169906
0.198982
0.216864
0.228086
0.234937
0.239205
0.241801
0.243408
0.244389
0.245
0.245388
0.245621
0.245785
0.245893
0.245982
0.246049
0.246121
0.246171
0.246235
0.246273
0.246318
0.246344
0.246382
0.246403
0.24644
0.246459
0.246494
0.246509
0.246535
0.246544
0.24657
0.246578
0.246604
0.246614
0.24664
0.24665
0.246674
0.246675
0.246692
0.246691
0.246707
0.246706
0.246717
0.246708
0.246712
0.246703
0.246707
0.246706
0.246724
0.246725
0.246733
0.246722
0.246721
0.246699
0.24668
0.24665
0.246642
0.246637
0.24665
0.24665
0.246652
0.246637
0.246621
0.246582
0.246538
0.24647
0.246377
0.246214
0.24594
0.245457
0.244635
0.243208
0.240781
0.236689
0.230019
0.219484
0.203901
0.182485
0.157137
0.123041
0.0512434
-0.222953
-33.5289
-52.9247
-51.5109
-42.1191
-32.1017
-22.9986
-16.0789
-10.8545
-7.22939
-4.67742
-2.97928
-1.82767
-1.08062
-0.586259
-0.271436
-0.0668605
0.0615095
0.143736
0.194701
0.226977
0.24679
0.259226
0.266802
0.271521
0.274383
0.276157
0.277236
0.277908
0.278333
0.278591
0.278769
0.278887
0.278981
0.279051
0.279124
0.279173
0.279236
0.279273
0.279317
0.279342
0.27938
0.279401
0.279439
0.279458
0.279493
0.279509
0.279535
0.279546
0.279571
0.27958
0.279605
0.279615
0.27964
0.27965
0.279673
0.279675
0.279693
0.279693
0.279711
0.279713
0.279725
0.279718
0.279722
0.279712
0.279715
0.279711
0.279727
0.279725
0.279732
0.279721
0.27972
0.2797
0.279683
0.279656
0.27965
0.279645
0.279657
0.279655
0.279656
0.279639
0.27962
0.279579
0.279533
0.279461
0.27936
0.279181
0.278879
0.278345
0.277433
0.275847
0.273148
0.268596
0.261168
0.24942
0.23201
0.208039
0.179719
0.142785
0.0691793
-0.22285
-37.0938
-58.1203
-56.5614
-46.1987
-35.2166
-25.2106
-17.6258
-11.8893
-7.9166
-5.1163
-3.25613
-1.99335
-1.17554
-0.633908
-0.289547
-0.0656224
0.0746511
0.164557
0.220184
0.25543
0.277025
0.290582
0.298823
0.303958
0.307064
0.308991
0.310159
0.310888
0.311346
0.311627
0.311818
0.311944
0.312044
0.312115
0.312189
0.312237
0.312299
0.312335
0.312378
0.312403
0.31244
0.312462
0.3125
0.31252
0.312555
0.312572
0.312599
0.31261
0.312635
0.312644
0.312668
0.312678
0.312702
0.312711
0.312734
0.312736
0.312755
0.312758
0.312778
0.312781
0.312795
0.312789
0.312794
0.312784
0.312785
0.312779
0.312792
0.312788
0.312793
0.312782
0.312782
0.312764
0.312749
0.312725
0.31272
0.312715
0.312726
0.312723
0.312721
0.312702
0.312681
0.312639
0.31259
0.312515
0.312406
0.312213
0.311885
0.311304
0.310307
0.308574
0.30562
0.300637
0.292498
0.279606
0.260463
0.234047
0.202884
0.163549
0.0903523
-0.212863
-40.4918
-62.9631
-61.2833
-49.9954
-38.1191
-27.2643
-19.0629
-12.847
-8.55221
-5.52011
-3.50997
-2.14371
-1.26055
-0.675044
-0.303485
-0.0616619
0.0895323
0.186513
0.246402
0.284372
0.307588
0.322171
0.331014
0.336527
0.339852
0.341917
0.343165
0.343945
0.344433
0.344736
0.344938
0.345072
0.345176
0.345249
0.345323
0.345371
0.345431
0.345467
0.345508
0.345532
0.345569
0.345592
0.345631
0.345651
0.345686