/*--------------------------------*- C++ -*----------------------------------*\
| =========                 |                                                 |
| \\      /  F ield         | OpenFOAM: The Open Source CFD Toolbox           |
|  \\    /   O peration     | Version:  v1906                                 |
|   \\  /    A nd           | Web:      www.OpenFOAM.com                      |
|    \\/     M anipulation  |                                                 |
\*---------------------------------------------------------------------------*/
FoamFile
{
    version     2.0;
    format      ascii;
    class       volScalarField;
    location    "1.5";
    object      pB;
}
// * * * * * * * * * * * * * * * * * * * * * * * * * * * * * * * * * * * * * //

dimensions      [1 1 -3 0 0 -1 0];


internalField   nonuniform List<scalar> 
4000
(
40.9791
95.2601
124.989
137.164
137.923
130.995
119.823
106.656
93.0481
79.9145
67.7795
56.8902
47.327
39.0645
32.0182
26.0725
21.1001
16.973
13.5704
10.7813
8.50738
6.66233
5.172
3.97321
3.01272
2.24607
1.6363
1.15299
0.771189
0.470526
0.234535
0.0498084
-0.0943006
-0.206472
-0.293483
-0.360849
-0.412841
-0.452902
-0.483675
-0.507286
-0.525334
-0.53913
-0.549605
-0.557581
-0.563582
-0.568124
-0.571496
-0.574028
-0.575877
-0.577257
-0.578245
-0.578983
-0.579495
-0.579889
-0.580149
-0.580362
-0.580488
-0.580604
-0.580663
-0.580726
-0.580747
-0.580778
-0.580769
-0.580766
-0.580715
-0.58066
-0.580545
-0.580413
-0.580204
-0.579955
-0.579606
-0.579183
-0.578614
-0.577907
-0.576967
-0.575765
-0.574168
-0.572086
-0.569306
-0.565642
-0.560764
-0.554331
-0.545838
-0.534729
-0.520263
-0.50163
-0.477849
-0.447933
-0.410897
-0.36608
-0.313455
-0.254373
-0.192606
-0.135976
-0.0983348
-0.100349
-0.164781
-0.29697
-0.435535
-0.397025
44.2659
95.4569
124.036
135.978
136.728
129.919
118.891
105.867
92.3875
79.3664
67.3282
56.5217
47.0287
38.8253
31.8285
25.9239
20.9853
16.886
13.506
10.7352
8.47607
6.64286
5.162
3.97072
3.01618
2.25421
1.64812
1.16769
0.788128
0.489201
0.254556
0.0708637
-0.0724478
-0.18401
-0.270556
-0.337569
-0.389291
-0.429148
-0.459764
-0.483259
-0.501214
-0.514943
-0.525364
-0.533302
-0.539272
-0.543794
-0.547149
-0.549672
-0.551511
-0.552886
-0.553868
-0.554604
-0.555112
-0.555505
-0.555761
-0.555974
-0.556099
-0.556215
-0.556272
-0.556338
-0.556357
-0.556391
-0.55638
-0.556379
-0.556327
-0.556273
-0.556157
-0.556026
-0.555816
-0.55557
-0.55522
-0.554799
-0.554231
-0.553527
-0.55259
-0.551395
-0.549805
-0.547734
-0.54497
-0.541328
-0.536477
-0.530083
-0.521639
-0.510598
-0.49622
-0.477706
-0.454082
-0.424376
-0.38762
-0.343173
-0.291029
-0.232559
-0.171511
-0.115568
-0.0780937
-0.0784415
-0.136668
-0.253861
-0.369647
-0.331589
46.6701
95.5295
122.649
134.169
134.844
128.171
117.34
104.53
91.2518
78.4132
66.5361
55.87
46.4977
38.3972
31.4871
25.6551
20.7768
16.7272
13.3879
10.6503
8.418
6.60643
5.14292
3.9655
3.02198
2.26873
1.66952
1.19448
0.81914
0.523504
0.291418
0.109706
-0.0320747
-0.14246
-0.228103
-0.294426
-0.34562
-0.385074
-0.415382
-0.438642
-0.456416
-0.47001
-0.480325
-0.488186
-0.494095
-0.498574
-0.501897
-0.504397
-0.506218
-0.507582
-0.508552
-0.509282
-0.509782
-0.510171
-0.510422
-0.510634
-0.510756
-0.510873
-0.510929
-0.510995
-0.511015
-0.511049
-0.511039
-0.511039
-0.510986
-0.510935
-0.510817
-0.510688
-0.510478
-0.510233
-0.509884
-0.509466
-0.508901
-0.508204
-0.507274
-0.506091
-0.504516
-0.502469
-0.499734
-0.496134
-0.491338
-0.485018
-0.476669
-0.465756
-0.451545
-0.43325
-0.409913
-0.380583
-0.344312
-0.30049
-0.24913
-0.191604
-0.131584
-0.07646
-0.0387782
-0.0358871
-0.0842224
-0.179789
-0.267093
-0.229048
47.4568
94.9646
120.61
131.567
132.119
125.608
115.041
102.527
89.5362
76.9626
65.3223
54.864
45.6716
37.7248
30.9449
25.2221
20.4347
16.4602
13.1825
10.4952
8.30373
6.52511
5.08807
3.93182
3.00516
2.26527
1.67661
1.20988
0.841055
0.550504
0.32238
0.14374
0.00433627
-0.104215
-0.188449
-0.253692
-0.304058
-0.342881
-0.372704
-0.395596
-0.413086
-0.426464
-0.436615
-0.444352
-0.450167
-0.454577
-0.457848
-0.460311
-0.462105
-0.463448
-0.464401
-0.465119
-0.465609
-0.465992
-0.466236
-0.466445
-0.466564
-0.46668
-0.466734
-0.466801
-0.466821
-0.466857
-0.466846
-0.466848
-0.466795
-0.466745
-0.466628
-0.4665
-0.46629
-0.466048
-0.465701
-0.465288
-0.464729
-0.464041
-0.463123
-0.461959
-0.460409
-0.458396
-0.455709
-0.452173
-0.447462
-0.441255
-0.433055
-0.422337
-0.408382
-0.390422
-0.367519
-0.338752
-0.303204
-0.260297
-0.210063
-0.153857
-0.0952094
-0.0410547
-0.00277444
0.00493542
-0.0299658
-0.0981101
-0.152013
-0.109359
46.8034
93.4983
117.839
128.172
128.58
122.255
112.012
99.8706
87.2488
75.0195
63.6892
53.5044
44.5494
36.8062
30.1989
24.6211
19.9545
16.08
12.8844
10.2642
8.12726
6.39269
4.99108
3.8632
2.95916
2.23722
1.66276
1.20721
0.847168
0.563487
0.340718
0.166239
0.0300593
-0.0760015
-0.158318
-0.222089
-0.271327
-0.309286
-0.338447
-0.360834
-0.377936
-0.39102
-0.400946
-0.408512
-0.4142
-0.418514
-0.421714
-0.424125
-0.42588
-0.427194
-0.428125
-0.428826
-0.429302
-0.429675
-0.429912
-0.430116
-0.430231
-0.430345
-0.430398
-0.430465
-0.430485
-0.430522
-0.430512
-0.430515
-0.430463
-0.430414
-0.430298
-0.430171
-0.429963
-0.429724
-0.429381
-0.428974
-0.428422
-0.427747
-0.426846
-0.425707
-0.424191
-0.422226
-0.419603
-0.416154
-0.411558
-0.405502
-0.397503
-0.387047
-0.373435
-0.355922
-0.333598
-0.305576
-0.270978
-0.229259
-0.180471
-0.125925
-0.0689485
-0.0158767
0.023343
0.0370808
0.0179977
-0.0195318
-0.0375393
0.0123009
45.1452
91.075
114.291
123.997
124.26
118.147
108.284
96.5869
84.411
72.6015
61.6516
51.8038
43.1419
35.6504
29.2568
23.8588
19.3422
15.5918
12.4983
9.96163
7.89251
6.21283
4.85541
3.76294
2.88715
2.18767
1.63098
1.18945
0.840426
0.565374
0.34934
0.1801
0.0479823
-0.0549348
-0.134829
-0.196737
-0.244544
-0.281407
-0.309729
-0.331474
-0.348086
-0.360794
-0.370435
-0.377785
-0.383309
-0.387501
-0.39061
-0.392954
-0.394659
-0.395936
-0.396838
-0.397518
-0.397977
-0.398338
-0.398565
-0.398762
-0.398873
-0.398984
-0.399035
-0.399102
-0.399122
-0.399159
-0.39915
-0.399154
-0.399103
-0.399056
-0.398942
-0.398817
-0.398611
-0.398376
-0.398038
-0.397638
-0.397098
-0.396437
-0.395559
-0.394452
-0.392979
-0.391073
-0.38853
-0.38519
-0.380738
-0.374873
-0.367123
-0.356996
-0.343812
-0.326854
-0.305249
-0.278147
-0.244714
-0.204443
-0.157398
-0.104821
-0.0497843
0.00209048
0.0424696
0.0629786
0.0609158
0.0550958
0.0734362
0.129472
42.837
87.7472
109.957
119.061
119.194
113.323
103.892
92.7051
81.0475
69.7294
59.227
49.7767
41.4615
34.2681
28.1279
22.9431
18.6045
15.0016
12.0295
9.59208
7.60374
5.98945
4.6847
3.63448
2.79242
2.11977
1.58435
1.1596
0.823786
0.559086
0.35114
0.188199
0.0609709
-0.0381586
-0.115131
-0.174788
-0.220867
-0.256403
-0.283708
-0.304676
-0.320692
-0.332947
-0.342241
-0.349329
-0.354656
-0.358699
-0.361697
-0.363958
-0.365602
-0.366833
-0.3677
-0.368352
-0.368792
-0.369138
-0.369355
-0.369543
-0.369649
-0.369756
-0.369806
-0.369871
-0.369891
-0.369929
-0.369921
-0.369925
-0.369876
-0.36983
-0.369718
-0.369596
-0.369394
-0.369162
-0.368831
-0.36844
-0.367913
-0.367272
-0.366421
-0.36535
-0.36393
-0.362095
-0.359649
-0.356438
-0.352159
-0.346521
-0.339071
-0.329334
-0.316661
-0.300364
-0.279611
-0.253597
-0.221533
-0.182953
-0.137924
-0.0876035
-0.0347599
0.0157739
0.0573615
0.0848793
0.099966
0.125222
0.178388
0.237267
40.1258
83.6145
104.858
113.39
113.416
107.819
98.8698
88.2555
77.1838
66.4246
56.4333
47.4381
39.5206
32.6696
26.8207
21.8813
17.7475
14.3144
11.4821
9.15914
7.26396
5.72513
4.48121
3.4798
2.67676
2.03517
1.52439
1.11911
0.798622
0.54595
0.34741
0.191803
0.0702743
-0.0244371
-0.0979964
-0.155023
-0.199078
-0.23306
-0.259174
-0.279231
-0.29455
-0.306272
-0.315161
-0.321941
-0.327036
-0.330903
-0.333771
-0.335933
-0.337504
-0.33868
-0.339505
-0.340127
-0.340543
-0.340872
-0.341076
-0.341255
-0.341355
-0.341458
-0.341505
-0.341569
-0.341588
-0.341626
-0.341618
-0.341623
-0.341575
-0.341531
-0.341423
-0.341303
-0.341106
-0.34088
-0.340557
-0.340176
-0.339665
-0.339045
-0.338225
-0.337199
-0.335839
-0.334087
-0.331753
-0.328692
-0.324613
-0.319238
-0.312134
-0.30285
-0.290765
-0.275231
-0.255457
-0.230688
-0.200188
-0.163525
-0.12077
-0.0729738
-0.0225728
0.0264269
0.0690823
0.103359
0.134791
0.18893
0.273556
0.331153
37.1744
78.7913
99.0346
107.017
106.966
101.675
93.2544
83.2702
72.8474
62.7101
53.2897
44.8042
37.3326
30.8659
25.3441
20.6805
16.7771
13.535
10.8601
8.666
6.87577
5.42199
4.24667
3.30036
2.54138
1.9349
1.45198
1.06873
0.765616
0.526584
0.338724
0.191452
0.0764071
-0.0132739
-0.0829428
-0.136966
-0.178711
-0.210918
-0.23567
-0.254683
-0.269205
-0.280317
-0.288742
-0.295169
-0.299998
-0.303664
-0.306381
-0.308429
-0.309916
-0.311027
-0.311806
-0.312391
-0.312781
-0.31309
-0.313281
-0.313449
-0.313542
-0.313639
-0.313684
-0.313745
-0.313764
-0.313801
-0.313794
-0.3138
-0.313754
-0.313712
-0.313606
-0.313491
-0.313298
-0.313078
-0.312764
-0.312396
-0.311902
-0.311307
-0.310523
-0.309547
-0.308256
-0.306598
-0.304391
-0.3015
-0.297646
-0.292569
-0.285856
-0.277082
-0.265661
-0.250985
-0.232312
-0.208938
-0.180182
-0.14565
-0.105407
-0.060389
-0.0126821
0.0345334
0.0779308
0.118273
0.164409
0.243873
0.355071
0.407597
34.0847
73.3891
92.5422
99.9832
99.8825
94.932
87.0841
77.7833
68.0678
58.611
49.8173
41.8923
34.9118
28.8688
23.7081
19.3488
15.6997
12.6687
10.1677
8.11605
6.44189
5.08222
3.98284
3.09755
2.38741
1.81987
1.36787
1.0091
0.72529
0.501434
0.325467
0.187486
0.0796747
-0.00438807
-0.069707
-0.120369
-0.159525
-0.189741
-0.212965
-0.230808
-0.244434
-0.254863
-0.262768
-0.268798
-0.273327
-0.276766
-0.279313
-0.281233
-0.282623
-0.283663
-0.284388
-0.284932
-0.285293
-0.28558
-0.285755
-0.285911
-0.285996
-0.286088
-0.286129
-0.286187
-0.286205
-0.286241
-0.286235
-0.286241
-0.286197
-0.286157
-0.286056
-0.285944
-0.285758
-0.285544
-0.285241
-0.284886
-0.284413
-0.283845
-0.283102
-0.28218
-0.280967
-0.279413
-0.277348
-0.274645
-0.271042
-0.266295
-0.260015
-0.251806
-0.24112
-0.227392
-0.209934
-0.188096
-0.161253
-0.129049
-0.091539
-0.0495372
-0.00477776
0.0403471
0.0839868
0.129304
0.187772
0.287915
0.419711
0.464323
30.9177
67.509
85.4441
92.3368
92.2104
87.6322
80.3991
71.8312
62.8764
54.1542
46.0385
38.7212
32.274
26.6914
21.923
17.8947
14.5225
11.7211
9.40945
7.51293
5.96523
4.70813
3.69156
2.87285
2.21603
1.69101
1.27281
0.940816
0.678131
0.470899
0.307968
0.180181
0.0803126
0.00242473
-0.0581086
-0.105069
-0.141372
-0.169392
-0.190929
-0.207478
-0.220116
-0.229789
-0.237118
-0.24271
-0.246907
-0.250095
-0.252453
-0.25423
-0.255514
-0.256473
-0.257138
-0.257638
-0.257966
-0.258229
-0.258387
-0.25853
-0.258606
-0.25869
-0.258727
-0.258782
-0.258799
-0.258834
-0.258828
-0.258834
-0.258792
-0.258755
-0.258658
-0.258552
-0.258372
-0.258166
-0.257874
-0.257534
-0.257083
-0.256547
-0.255847
-0.254987
-0.253858
-0.252419
-0.250508
-0.248011
-0.244682
-0.240295
-0.234488
-0.226896
-0.217011
-0.204316
-0.188178
-0.168007
-0.143233
-0.113538
-0.0789632
-0.0401997
0.00135563
0.0440308
0.087258
0.136125
0.203978
0.319373
0.465145
0.500186
27.708
61.2381
77.8074
84.1301
83.9972
79.8215
73.242
65.4519
57.3066
49.3682
41.9776
35.3114
29.436
24.3474
20.0004
16.3277
13.2529
10.6984
8.59024
6.86059
5.44893
4.30222
3.37482
2.62783
2.02847
1.54931
1.16758
0.864486
0.624627
0.435366
0.286539
0.169788
0.0785257
0.00733379
-0.048006
-0.0909468
-0.124148
-0.149778
-0.169479
-0.184619
-0.19618
-0.20503
-0.211731
-0.216844
-0.220679
-0.223592
-0.225744
-0.227365
-0.228532
-0.229402
-0.230002
-0.230453
-0.230746
-0.230982
-0.231122
-0.23125
-0.231315
-0.231392
-0.231424
-0.231475
-0.23149
-0.231523
-0.231518
-0.231525
-0.231486
-0.231451
-0.231359
-0.231257
-0.231085
-0.230888
-0.230608
-0.230285
-0.229858
-0.229355
-0.228704
-0.227909
-0.226872
-0.225557
-0.223813
-0.221538
-0.218503
-0.214505
-0.209208
-0.202281
-0.19326
-0.181676
-0.166956
-0.14857
-0.126006
-0.0989826
-0.0675274
-0.0322114
0.00587997
0.0457023
0.0877369
0.138473
0.212362
0.337109
0.489978
0.514981
24.4746
54.6499
69.6994
75.4191
75.2936
71.5476
65.6569
58.6854
51.3936
44.2833
37.6604
31.6843
26.4157
21.8517
17.9524
14.6576
11.899
9.60699
7.71539
6.16326
4.8964
3.8672
3.03477
2.36419
1.82608
1.39582
1.05301
0.780767
0.565292
0.395239
0.261496
0.156557
0.0745135
0.0104984
-0.0392709
-0.0778971
-0.107766
-0.130829
-0.148555
-0.16218
-0.17258
-0.180543
-0.18657
-0.191167
-0.194611
-0.197227
-0.199156
-0.200607
-0.201647
-0.202422
-0.202952
-0.20335
-0.203604
-0.203811
-0.203931
-0.204043
-0.204098
-0.204166
-0.204193
-0.204239
-0.204252
-0.204284
-0.204278
-0.204286
-0.204249
-0.204218
-0.20413
-0.204034
-0.20387
-0.203682
-0.203416
-0.203111
-0.202711
-0.202244
-0.201644
-0.20092
-0.199981
-0.198798
-0.197233
-0.195194
-0.192474
-0.18889
-0.184137
-0.177919
-0.169816
-0.159414
-0.1462
-0.129707
-0.10948
-0.0852751
-0.0571062
-0.0254335
0.00893406
0.04547
0.0854462
0.136211
0.212563
0.340571
0.493744
0.509273
21.2277
47.806
61.1854
66.2621
66.1526
62.8602
57.6899
51.5734
45.174
38.9311
33.1137
27.8626
23.2321
19.2202
15.7921
12.8951
10.4695
8.45401
6.79053
5.42549
4.31125
3.40598
2.67371
2.08376
1.6103
1.23169
0.929995
0.690365
0.500678
0.350951
0.23318
0.140756
0.0684849
0.0120829
-0.0317735
-0.0658171
-0.0921446
-0.112477
-0.128102
-0.140115
-0.14928
-0.156299
-0.161606
-0.165654
-0.168681
-0.17098
-0.172669
-0.17394
-0.174844
-0.175517
-0.175971
-0.176313
-0.176527
-0.176703
-0.1768
-0.176896
-0.176939
-0.176997
-0.177018
-0.17706
-0.177069
-0.177099
-0.177094
-0.177103
-0.177069
-0.17704
-0.176958
-0.176867
-0.176712
-0.176534
-0.176283
-0.175997
-0.175625
-0.175197
-0.174651
-0.174003
-0.173168
-0.172124
-0.170748
-0.168959
-0.166571
-0.163425
-0.159246
-0.153775
-0.146642
-0.137485
-0.125855
-0.111349
-0.0935731
-0.0723167
-0.0475841
-0.0197358
0.0106539
0.0434569
0.080468
0.129354
0.204546
0.329806
0.476838
0.484255
17.9724
40.7575
52.3284
56.7189
56.6293
53.8109
49.3887
44.1588
38.6858
33.3448
28.3659
23.8703
19.9051
16.4691
13.5329
11.0514
8.97343
7.2468
5.82163
4.65208
3.69737
2.92164
2.29411
1.78851
1.38269
1.05815
0.799504
0.594043
0.431384
0.302973
0.201958
0.12267
0.0606645
0.0122633
-0.0253758
-0.0545983
-0.077198
-0.0946545
-0.108067
-0.11838
-0.126244
-0.132267
-0.136814
-0.140283
-0.14287
-0.144833
-0.14627
-0.147349
-0.14811
-0.148675
-0.14905
-0.149332
-0.149502
-0.149645
-0.149719
-0.149797
-0.149827
-0.149875
-0.14989
-0.149926
-0.149933
-0.14996
-0.149955
-0.149965
-0.149934
-0.149908
-0.149831
-0.149747
-0.1496
-0.149434
-0.149198
-0.148933
-0.14859
-0.148203
-0.147716
-0.147146
-0.14642
-0.145523
-0.144344
-0.142817
-0.140777
-0.138088
-0.134509
-0.129821
-0.123701
-0.115844
-0.105868
-0.0934327
-0.0782053
-0.0600116
-0.0388476
-0.0149882
0.0111824
0.0398128
0.0729564
0.118087
0.188609
0.305433
0.440436
0.441624
14.7116
33.5478
43.1878
46.8493
46.7804
44.4528
40.8023
36.486
31.9684
27.5583
23.446
19.7319
16.4554
13.6159
11.1891
9.138
7.42038
5.9931
4.81497
3.8481
3.0588
2.41744
1.89858
1.48049
1.1449
0.876495
0.66257
0.492614
0.358052
0.251807
0.168226
0.10261
0.0512941
0.0112286
-0.0199298
-0.0441248
-0.0628352
-0.0772904
-0.0883931
-0.0969309
-0.103434
-0.108417
-0.112171
-0.115034
-0.117161
-0.118773
-0.119945
-0.120823
-0.121434
-0.121886
-0.122177
-0.122398
-0.122522
-0.12263
-0.12268
-0.122738
-0.122754
-0.122791
-0.122799
-0.12283
-0.122834
-0.122859
-0.122854
-0.122865
-0.122836
-0.122813
-0.122742
-0.122664
-0.122527
-0.122372
-0.122152
-0.121909
-0.121598
-0.121254
-0.120827
-0.12034
-0.119727
-0.118983
-0.118008
-0.116753
-0.115074
-0.112859
-0.109904
-0.106027
-0.100959
-0.0944501
-0.0861848
-0.0758918
-0.0632971
-0.0482636
-0.0307822
-0.0110569
0.0106737
0.0347179
0.0631414
0.102757
0.165366
0.268592
0.386396
0.383484
11.4465
26.2137
33.8202
36.7134
36.6638
34.8403
31.9808
28.6004
25.062
21.6068
18.3841
15.473
12.9044
10.6781
8.77533
7.16705
5.82019
4.70094
3.77706
3.01881
2.3998
1.89679
1.48983
1.1619
0.898662
0.688107
0.520283
0.386939
0.281362
0.197989
0.132402
0.0809053
0.0406317
0.00918085
-0.0152774
-0.034273
-0.0489594
-0.0603083
-0.0690193
-0.0757194
-0.0808141
-0.0847186
-0.0876509
-0.0898869
-0.0915363
-0.0927847
-0.0936812
-0.094351
-0.0948056
-0.0951405
-0.0953455
-0.0955017
-0.0955786
-0.0956504
-0.0956734
-0.0957111
-0.0957137
-0.0957392
-0.0957395
-0.0957646
-0.0957651
-0.0957878
-0.0957827
-0.0957941
-0.0957683
-0.0957491
-0.0956831
-0.0956119
-0.0954843
-0.0953418
-0.0951398
-0.0949197
-0.0946412
-0.0943422
-0.0939783
-0.0935766
-0.0930805
-0.0924928
-0.0917291
-0.090754
-0.0894458
-0.0877202
-0.085407
-0.0823661
-0.0783796
-0.0732587
-0.0667535
-0.058661
-0.0487679
-0.0369749
-0.0232711
-0.00780337
0.00929439
0.0283842
0.0513259
0.0838686
0.135719
0.22089
0.317148
0.312259
8.17837
18.7872
24.2791
26.371
26.3382
25.0288
22.9756
20.5485
18.0076
15.5262
13.2112
11.1196
9.27397
7.6742
6.30678
5.15098
4.18301
3.37862
2.71462
2.16965
1.72475
1.36321
1.07071
0.834994
0.645775
0.494421
0.373782
0.277921
0.202024
0.14208
0.0949297
0.057902
0.0289492
0.00633304
-0.0112517
-0.024912
-0.0354682
-0.0436277
-0.0498827
-0.0546955
-0.0583434
-0.0611404
-0.0632279
-0.0648192
-0.0659782
-0.0668524
-0.0674658
-0.0679212
-0.0682155
-0.0684298
-0.0685458
-0.0686356
-0.0686637
-0.0686979
-0.0686932
-0.0687097
-0.0686975
-0.0687112
-0.0687036
-0.0687227
-0.0687199
-0.0687402
-0.0687346
-0.0687468
-0.0687239
-0.0687081
-0.0686476
-0.0685831
-0.0684656
-0.0683359
-0.0681521
-0.0679561
-0.0677116
-0.067459
-0.06716
-0.0668462
-0.0664697
-0.0660425
-0.0654943
-0.0648054
-0.0638767
-0.062651
-0.0609941
-0.0588084
-0.0559288
-0.0522263
-0.0475195
-0.0416731
-0.0345359
-0.0260464
-0.0161951
-0.00508394
0.00722272
0.0210523
0.037879
0.0620593
0.100818
0.164324
0.235591
0.230617
4.90791
11.2971
14.6158
15.8814
15.863
15.0747
13.8384
12.3771
10.8472
9.35282
7.9584
6.69842
5.58652
4.6227
3.79883
3.10246
2.51925
2.0346
1.63455
1.30619
1.03815
0.820326
0.644107
0.502098
0.388102
0.296917
0.224243
0.166492
0.120776
0.0846614
0.056267
0.0339614
0.0165301
0.00290743
-0.00767849
-0.0159054
-0.0222545
-0.0271647
-0.0309172
-0.0338068
-0.0359804
-0.0376487
-0.038875
-0.039809
-0.0404681
-0.040961
-0.0412856
-0.0415223
-0.0416529
-0.0417442
-0.0417693
-0.0417912
-0.0417694
-0.041765
-0.0417317
-0.0417263
-0.0416987
-0.0417003
-0.0416845
-0.0416973
-0.0416912
-0.041709
-0.041703
-0.0417158
-0.0416957
-0.0416834
-0.0416284
-0.0415708
-0.0414635
-0.0413471
-0.0411823
-0.0410114
-0.0408019
-0.0405969
-0.0403643
-0.0401401
-0.0398854
-0.0396212
-0.0392918
-0.0388932
-0.0383499
-0.0376317
-0.0366415
-0.0353246
-0.0335698
-0.0313083
-0.0284273
-0.0248604
-0.0205178
-0.0153772
-0.00943278
-0.00275061
0.0046475
0.0129878
0.0232246
0.0380802
0.0620167
0.101199
0.144985
0.141409
1.63606
3.76973
4.87999
5.3037
5.2979
5.03477
4.62196
4.13388
3.62292
3.12365
2.65759
2.2364
1.86471
1.54254
1.26716
1.0344
0.839475
0.677504
0.543842
0.434121
0.344593
0.271838
0.213002
0.165591
0.127542
0.0971097
0.072871
0.0536073
0.0383754
0.026332
0.0168857
0.00945486
0.00366611
-0.000867084
-0.00437829
-0.00711223
-0.00920791
-0.0108326
-0.0120544
-0.0129993
-0.0136823
-0.0142092
-0.0145644
-0.0148335
-0.0149871
-0.0150945
-0.0151271
-0.0151423
-0.0151073
-0.0150743
-0.0150072
-0.0149602
-0.0148876
-0.014844
-0.0147815
-0.0147535
-0.0147102
-0.0146995
-0.0146753
-0.0146816
-0.0146721
-0.0146874
-0.0146811
-0.0146942
-0.0146769
-0.0146679
-0.0146185
-0.0145678
-0.0144712
-0.0143684
-0.0142231
-0.014078
-0.0139045
-0.0137481
-0.0135828
-0.0134494
-0.0133177
-0.013218
-0.0131091
-0.0130034
-0.0128485
-0.0126423
-0.0123248
-0.0118851
-0.0112658
-0.0104592
-0.00942116
-0.00815373
-0.00662942
-0.00486527
-0.0028607
-0.000651836
0.00176551
0.00447492
0.00782802
0.0127648
0.0208139
0.0340492
0.0488483
0.0476126
-1.63626
-3.76995
-4.87994
-5.30333
-5.29721
-5.0338
-4.62101
-4.13332
-3.6227
-3.12417
-2.65927
-2.23926
-1.86858
-1.5472
-1.27245
-1.04019
-0.845651
-0.683956
-0.550413
-0.440826
-0.351289
-0.278522
-0.219607
-0.172122
-0.133983
-0.103466
-0.0791128
-0.0597635
-0.0444101
-0.0323013
-0.0227352
-0.0152402
-0.00934599
-0.00475749
-0.00116829
0.00161077
0.00378406
0.00545691
0.00677518
0.00778203
0.00859491
0.00921337
0.00973235
0.0101305
0.010484
0.0107632
0.0110236
0.0112304
0.0114318
0.0115896
0.0117494
0.0118659
0.0119897
0.0120728
0.0121648
0.0122158
0.0122751
0.0122983
0.0123311
0.0123313
0.0123443
0.0123314
0.0123382
0.0123248
0.0123396
0.0123452
0.012389
0.0124326
0.0125186
0.0126073
0.0127327
0.0128513
0.0129882
0.0130954
0.0131929
0.013235
0.0132431
0.013178
0.0130662
0.0128786
0.0126443
0.0123374
0.0119804
0.0115403
0.0110201
0.0103667
0.00955563
0.0085162
0.00721389
0.00559208
0.00364552
0.00136618
-0.00122138
-0.00419033
-0.00781987
-0.0130023
-0.0211994
-0.0344575
-0.0491493
-0.0477214
-4.9081
-11.2973
-14.6158
-15.881
-15.8623
-15.0737
-13.8375
-12.3766
-10.847
-9.35337
-7.96011
-6.7013
-5.59041
-4.62737
-3.80414
-3.10826
-2.52543
-2.04105
-1.64112
-1.31289
-1.04484
-0.827004
-0.650706
-0.508623
-0.394538
-0.303268
-0.230481
-0.172646
-0.126809
-0.0906284
-0.0621138
-0.0397442
-0.0222077
-0.00852941
0.00213537
0.0104079
0.0168346
0.0217927
0.0256414
0.0285925
0.0308951
0.0326541
0.0340436
0.0351063
0.0359646
0.0366284
0.0371802
0.0376081
0.037975
0.0382573
0.0385095
0.0386955
0.0388707
0.0389933
0.0391148
0.0391889
0.0392644
0.0393001
0.0393414
0.0393483
0.0393649
0.0393543
0.0393616
0.0393481
0.0393604
0.0393629
0.0394011
0.0394377
0.0395128
0.0395873
0.0396925
0.0397841
0.0398838
0.0399415
0.0399712
0.039922
0.0398071
0.0395779
0.0392464
0.0387672
0.0381455
0.0373277
0.0362987
0.0349816
0.0333252
0.0312155
0.0285598
0.0252191
0.0210972
0.0160979
0.0102107
0.00345801
-0.00410955
-0.012708
-0.0232195
-0.038319
-0.0624022
-0.101607
-0.145286
-0.141518
-8.17854
-18.7874
-24.279
-26.3706
-26.3375
-25.0279
-22.9747
-20.548
-18.0075
-15.5268
-13.2129
-11.1225
-9.2779
-7.67891
-6.31211
-5.15679
-4.1892
-3.38507
-2.72119
-2.17634
-1.73143
-1.36987
-1.07729
-0.841508
-0.652201
-0.500763
-0.380014
-0.284071
-0.208052
-0.148042
-0.100771
-0.0636798
-0.0346221
-0.0119498
0.00571539
0.0194224
0.0300562
0.0382632
0.0446139
0.0494871
0.0532622
0.0561482
0.0583978
0.060117
0.061474
0.0625174
0.0633566
0.0640027
0.0645332
0.0649383
0.065282
0.0655371
0.0657635
0.0659252
0.066076
0.066173
0.0662649
0.0663129
0.0663627
0.0663763
0.0663966
0.0663884
0.0663961
0.0663824
0.0663926
0.066392
0.0664247
0.0664542
0.0665185
0.0665786
0.0666633
0.0667278
0.0667902
0.0667983
0.0667604
0.0666209
0.066384
0.0659927
0.0654442
0.0646767
0.0636721
0.0623488
0.0606546
0.0584689
0.0556865
0.052133
0.0476479
0.0420246
0.0351053
0.0267549
0.0169595
0.00577757
-0.006697
-0.0207818
-0.0378798
-0.0623007
-0.101204
-0.16473
-0.235891
-0.230726
-11.4467
-26.2138
-33.8201
-36.713
-36.6631
-34.8394
-31.98
-28.6
-25.0619
-21.6076
-18.386
-15.476
-12.9084
-10.6829
-8.7807
-7.1729
-5.82639
-4.7074
-3.78362
-3.02549
-2.40646
-1.90343
-1.4964
-1.1684
-0.905072
-0.694436
-0.526505
-0.393082
-0.287385
-0.203945
-0.138236
-0.0866759
-0.0462976
-0.0147899
0.0097512
0.0287949
0.0435591
0.0549549
0.0637608
0.0705198
0.075739
0.07973
0.0828227
0.0851854
0.0870309
0.088446
0.0895664
0.090426
0.0911167
0.0916424
0.0920759
0.0923991
0.0926759
0.0928763
0.0930558
0.0931755
0.0932834
0.0933438
0.0934019
0.093422
0.0934461
0.0934402
0.0934483
0.0934346
0.0934428
0.0934393
0.0934667
0.0934892
0.0935426
0.0935883
0.0936525
0.0936898
0.0937149
0.0936738
0.0935692
0.0933406
0.0929839
0.0924333
0.0916719
0.0906215
0.0892408
0.0874207
0.0850723
0.0820319
0.0781407
0.0731647
0.0668762
0.0590017
0.0493225
0.0376654
0.0240153
0.00847666
-0.00878664
-0.0281275
-0.0513354
-0.0841137
-0.136104
-0.221295
-0.317446
-0.312368
-14.7117
-33.5479
-43.1876
-46.8488
-46.7797
-44.4519
-40.8016
-36.4857
-31.9685
-27.5592
-23.4479
-19.735
-16.4595
-13.6207
-11.1945
-9.14387
-7.4266
-5.99956
-4.82153
-3.85477
-3.06545
-2.42406
-1.90512
-1.48697
-1.15129
-0.882807
-0.66878
-0.498747
-0.364068
-0.257755
-0.174051
-0.108372
-0.0569509
-0.0168274
0.0144168
0.0386618
0.0574503
0.0719518
0.0831481
0.0917428
0.0983672
0.103433
0.107345
0.110334
0.112654
0.11443
0.115823
0.11689
0.117736
0.118379
0.1189
0.11929
0.119616
0.119854
0.120062
0.120203
0.120327
0.1204
0.120466
0.120492
0.12052
0.120517
0.120525
0.120511
0.120518
0.120512
0.120534
0.120549
0.120592
0.120623
0.120667
0.120678
0.120666
0.120576
0.120406
0.12009
0.119617
0.118911
0.117942
0.116616
0.114868
0.112563
0.109576
0.1057
0.100724
0.0943554
0.0863003
0.0762188
0.0638324
0.0489303
0.0314999
0.0117037
-0.0101893
-0.034479
-0.0631621
-0.103007
-0.165751
-0.268994
-0.386692
-0.383593
-17.9725
-40.7575
-52.3281
-56.7184
-56.6286
-53.8101
-49.3881
-44.1586
-38.6861
-33.3458
-28.368
-23.8735
-19.9092
-16.474
-13.5383
-11.0573
-8.97967
-7.25326
-5.82818
-4.65873
-3.70398
-2.92823
-2.30063
-1.79496
-1.38906
-1.06444
-0.805699
-0.600165
-0.43739
-0.308911
-0.207773
-0.128421
-0.06631
-0.0178493
0.0198789
0.0491534
0.0718318
0.089334
0.102839
0.113206
0.121187
0.127289
0.131992
0.135583
0.138361
0.140484
0.14214
0.143406
0.144402
0.145158
0.145763
0.146217
0.146591
0.146866
0.147101
0.147264
0.147403
0.147487
0.147561
0.147594
0.147626
0.147625
0.147633
0.14762
0.147624
0.147616
0.147633
0.147642
0.147674
0.147691
0.147715
0.147698
0.14765
0.147513
0.147279
0.146879
0.146292
0.145436
0.144266
0.142673
0.140571
0.137795
0.134188
0.129501
0.123472
0.115749
0.105975
0.0937433
0.0787172
0.0606493
0.0395331
0.0156029
-0.0107261
-0.0395953
-0.0729905
-0.118342
-0.188993
-0.305832
-0.44073
-0.441731
-21.2277
-47.8059
-61.1851
-66.2616
-66.1519
-62.8595
-57.6894
-51.5733
-45.1744
-38.9323
-33.116
-27.866
-23.2363
-19.2251
-15.7976
-12.9011
-10.4757
-8.46048
-6.79707
-5.43212
-4.31784
-3.41254
-2.6802
-2.09018
-1.61664
-1.23796
-0.936174
-0.696474
-0.506673
-0.356879
-0.238983
-0.146495
-0.0741174
-0.0176538
0.0262953
0.0603932
0.0868005
0.107178
0.122893
0.134957
0.144235
0.151329
0.156787
0.160954
0.164168
0.166623
0.168529
0.169985
0.171124
0.171988
0.172674
0.17319
0.17361
0.173921
0.174181
0.174364
0.174519
0.174614
0.174696
0.174734
0.174769
0.174771
0.17478
0.174766
0.17477
0.174759
0.174771
0.174773
0.174795
0.174798
0.174802
0.17476
0.174677
0.174493
0.174197
0.173715
0.17302
0.17202
0.170658
0.168809
0.166364
0.163137
0.158933
0.153464
0.146419
0.137389
0.125953
0.111641
0.094058
0.0729206
0.0482321
0.0203133
-0.01023
-0.043264
-0.0805174
-0.129616
-0.20493
-0.330202
-0.477128
-0.484361
-24.4746
-54.6498
-69.699
-75.4185
-75.293
-71.5469
-65.6565
-58.6855
-51.3942
-44.2847
-37.6628
-31.6877
-26.42
-21.8568
-17.958
-14.6636
-11.9052
-9.61346
-7.72191
-6.16986
-4.90295
-3.87373
-3.04122
-2.37058
-1.83239
-1.40207
-1.05917
-0.786862
-0.571275
-0.401154
-0.267287
-0.162284
-0.0801313
-0.0160521
0.0338136
0.0724966
0.102447
0.125554
0.143368
0.15704
0.167549
0.175583
0.181756
0.186467
0.190095
0.192863
0.195006
0.19664
0.197914
0.19888
0.199643
0.200217
0.200681
0.201026
0.201311
0.201513
0.201681
0.201788
0.201877
0.201921
0.201959
0.201963
0.201973
0.201959
0.201961
0.201949
0.201956
0.201952
0.201964
0.201954
0.201939
0.201871
0.201753
0.201525
0.20117
0.200611
0.199812
0.198674
0.197129
0.195036
0.192266
0.188607
0.183833
0.177617
0.169599
0.159318
0.146288
0.129978
0.109935
0.085841
0.0577123
0.0259696
-0.00854619
-0.0453042
-0.0855123
-0.13648
-0.212947
-0.340963
-0.494031
-0.509379
-27.7079
-61.2379
-77.807
-84.1294
-83.9966
-79.8209
-73.2417
-65.4522
-57.3074
-49.3698
-41.9803
-35.315
-29.4404
-24.3525
-20.006
-16.3337
-13.2591
-10.7048
-8.59675
-6.86716
-5.45545
-4.3087
-3.38123
-2.63418
-2.03475
-1.55553
-1.17373
-0.870566
-0.630598
-0.44127
-0.292318
-0.175502
-0.0841275
-0.0128686
0.0425715
0.0855717
0.118856
0.14453
0.164316
0.1795
0.191164
0.20008
0.206923
0.212144
0.216158
0.21922
0.221583
0.223385
0.224784
0.225846
0.226681
0.22731
0.227816
0.228192
0.2285
0.228721
0.228902
0.229019
0.229114
0.229163
0.229205
0.229211
0.229221
0.229208
0.229209
0.229195
0.229198
0.229188
0.22919
0.229167
0.229134
0.229042
0.228892
0.22862
0.228209
0.227576
0.226679
0.225413
0.223694
0.221371
0.218294
0.214228
0.208914
0.20199
0.19305
0.18158
0.167034
0.14882
0.126428
0.0995071
0.0680878
0.0327027
-0.00553095
-0.0455658
-0.0878208
-0.138749
-0.212745
-0.337496
-0.490261
-0.515085
-30.9176
-67.5087
-85.4436
-92.3362
-92.2097
-87.6316
-80.3989
-71.8316
-62.8774
-54.156
-46.0413
-38.725
-32.2786
-26.6966
-21.9287
-17.9008
-14.5288
-11.7276
-9.41594
-7.51948
-5.97171
-4.71457
-3.69793
-2.87916
-2.22228
-1.6972
-1.27894
-0.94688
-0.68409
-0.476792
-0.313736
-0.185883
-0.0858975
-0.00793937
0.0526983
0.0997212
0.136109
0.164173
0.185792
0.202381
0.215118
0.224851
0.232315
0.23801
0.242381
0.245713
0.24828
0.250236
0.251752
0.252902
0.253804
0.254484
0.255029
0.255435
0.255764
0.256002
0.256195
0.256322
0.256423
0.256477
0.256522
0.25653
0.256541
0.256529
0.256529
0.256513
0.256512
0.256497
0.256489
0.256454
0.256403
0.256288
0.256107
0.255795
0.25533
0.254628
0.25364
0.252253
0.250373
0.247836
0.244471
0.240023
0.234204
0.226616
0.216809
0.20422
0.188246
0.168235
0.14362
0.114018
0.0794753
0.0406438
-0.00104754
-0.043925
-0.0873606
-0.136408
-0.20436
-0.319755
-0.465422
-0.500289
-34.0846
-73.3887
-92.5415
-99.9825
-99.8818
-94.9315
-87.084
-77.784
-68.069
-58.6131
-49.8203
-41.8961
-34.9165
-28.8741
-23.7138
-19.3549
-15.7061
-12.6752
-10.1742
-8.12256
-6.44833
-5.08862
-3.98917
-3.10382
-2.39363
-1.82604
-1.37397
-1.01515
-0.731236
-0.507317
-0.331224
-0.193175
-0.0852425
-0.00110561
0.0643219
0.115049
0.154293
0.184552
0.207856
0.225734
0.239455
0.249938
0.257971
0.264097
0.268795
0.272375
0.275127
0.277224
0.278846
0.280077
0.28104
0.281768
0.282347
0.282781
0.283131
0.283384
0.283588
0.283723
0.28383
0.283888
0.283936
0.283947
0.283958
0.283946
0.283946
0.283928
0.283924
0.283904
0.283888
0.283841
0.283773
0.283637
0.283426
0.283077
0.282562
0.281797
0.280724
0.279225
0.277197
0.27446
0.270831
0.266029
0.259741
0.251537
0.240926
0.227297
0.209992
0.188301