/*--------------------------------*- C++ -*----------------------------------*\
| =========                 |                                                 |
| \\      /  F ield         | OpenFOAM: The Open Source CFD Toolbox           |
|  \\    /   O peration     | Version:  v1906                                 |
|   \\  /    A nd           | Web:      www.OpenFOAM.com                      |
|    \\/     M anipulation  |                                                 |
\*---------------------------------------------------------------------------*/
FoamFile
{
    version     2.0;
    format      ascii;
    class       surfaceScalarField;
    location    "1.5";
    object      phi;
}
// * * * * * * * * * * * * * * * * * * * * * * * * * * * * * * * * * * * * * //

dimensions      [0 3 -1 0 0 0 0];
oriented        oriented;


internalField   nonuniform List<scalar> 
7860
(
0.00223092
0.00276908
0.00192537
0.000305552
0.00189399
3.13783e-05
0.00188859
5.39749e-06
0.00189314
-4.54907e-06
0.00189368
-5.37517e-07
0.00189362
5.50521e-08
0.00189245
1.1678e-06
0.00189133
1.11812e-06
0.00189022
1.10861e-06
0.0018893
9.26393e-07
0.0018885
7.96842e-07
0.00188784
6.64226e-07
0.00188727
5.61632e-07
0.0018868
4.73436e-07
0.0018864
4.00865e-07
0.00188606
3.38769e-07
0.00188577
2.8662e-07
0.00188553
2.41768e-07
0.00188533
2.03959e-07
0.00188515
1.72025e-07
0.00188501
1.45133e-07
0.00188489
1.21578e-07
0.00188479
1.00633e-07
0.0018847
8.31115e-08
0.00188463
6.75827e-08
0.00188458
5.54228e-08
0.00188453
4.4827e-08
0.00188449
3.69237e-08
0.00188446
2.98766e-08
0.00188444
2.37894e-08
0.00188442
1.85241e-08
0.00188441
1.42882e-08
0.00188439
1.10204e-08
0.00188439
8.68029e-09
0.00188438
6.70423e-09
0.00188437
5.50085e-09
0.00188437
3.87296e-09
0.00188437
2.82823e-09
0.00188436
1.54571e-09
0.00188436
1.2376e-09
0.00188436
8.7004e-10
0.00188436
8.81983e-10
0.00188436
4.57402e-10
0.00188436
2.93687e-10
0.00188436
-9.70592e-11
0.00188435
4.1948e-11
0.00188435
-1.5078e-10
0.00188435
-1.56768e-12
0.00188435
-3.56112e-10
0.00188435
-1.84315e-10
0.00188435
-4.07274e-10
0.00188435
-1.59871e-10
0.00188435
-2.73301e-10
0.00188435
5.26757e-11
0.00188435
-9.2858e-11
0.00188435
-5.43014e-11
0.00188435
-4.33366e-10
0.00188435
-3.9303e-10
0.00188435
-6.44642e-10
0.00188435
-3.91665e-10
0.00188435
-4.77482e-10
0.00188435
-1.591e-10
0.00188435
-3.55598e-10
0.00188435
-2.40348e-10
0.00188435
-4.96428e-10
0.00188435
-3.78008e-10
0.00188435
-5.65595e-10
0.00188435
-3.48049e-10
0.00188435
-4.23232e-10
0.00188435
-2.08296e-10
0.00188435
-3.71568e-10
0.00188435
-1.89111e-10
0.00188435
-3.11575e-10
0.00188435
-1.30366e-10
0.00188435
-2.3938e-10
0.00188435
-1.83931e-11
0.00188435
-5.56367e-11
0.00188435
1.43717e-10
0.00188435
6.17324e-11
0.00188435
2.63317e-10
0.00188435
3.17097e-10
0.00188435
7.01517e-10
0.00188435
1.00854e-09
0.00188435
1.73869e-09
0.00188435
2.60357e-09
0.00188434
4.12216e-09
0.00188434
6.00394e-09
0.00188433
8.72836e-09
0.00188432
1.20386e-08
0.0018843
1.65739e-08
0.00188428
2.12506e-08
0.00188425
2.50129e-08
0.00188423
2.26297e-08
0.00188422
1.45358e-08
0.00188418
3.37709e-08
0.00188397
2.09736e-07
0.001883
9.6926e-07
0.00188092
2.07786e-06
-2.26983e-06
0.00411152
0.00365756
0.00377938
0.000637693
0.00370319
0.000107566
0.00369335
1.52376e-05
0.00369872
-9.91842e-06
0.00370026
-2.07183e-06
0.00370012
1.98677e-07
0.00369834
2.94773e-06
0.00369644
3.02101e-06
0.00369457
2.97708e-06
0.00369297
2.52541e-06
0.00369159
2.17179e-06
0.00369044
1.81957e-06
0.00368946
1.53923e-06
0.00368863
1.30013e-06
0.00368793
1.10217e-06
0.00368734
9.3369e-07
0.00368683
7.92678e-07
0.0036864
6.71531e-07
0.00368603
5.69044e-07
0.00368572
4.80874e-07
0.00368546
4.06106e-07
0.00368524
3.4076e-07
0.00368506
2.8344e-07
0.00368491
2.35762e-07
0.00368478
1.93306e-07
0.00368468
1.59665e-07
0.0036846
1.29757e-07
0.00368453
1.06445e-07
0.00368447
8.60448e-08
0.00368443
6.884e-08
0.00368439
5.46822e-08
0.00368436
4.29919e-08
0.00368434
3.38794e-08
0.00368432
2.66612e-08
0.00368431
2.04271e-08
0.0036843
1.62415e-08
0.00368429
1.1685e-08
0.00368428
9.07671e-09
0.00368428
6.08978e-09
0.00368427
5.13655e-09
0.00368427
3.91712e-09
0.00368427
3.5352e-09
0.00368427
2.55552e-09
0.00368426
2.16532e-09
0.00368426
1.37319e-09
0.00368426
1.44801e-09
0.00368426
7.23654e-10
0.00368426
8.33087e-10
0.00368426
-7.08015e-11
0.00368426
2.0536e-10
0.00368426
-3.89552e-10
0.00368426
1.41736e-11
0.00368426
-3.15017e-10
0.00368426
2.49613e-10
0.00368426
-4.933e-11
0.00368426
1.56554e-10
0.00368426
-3.9948e-10
0.00368426
-1.45797e-10
0.00368426
-6.02219e-10
0.00368426
-1.47661e-10
0.00368426
-5.02618e-10
0.00368426
1.20811e-11
0.00368426
-4.63377e-10
0.00368426
-1.75826e-10
0.00368426
-6.00489e-10
0.00368426
-2.26574e-10
0.00368426
-4.71889e-10
0.00368426
2.00903e-11
0.00368426
-1.44044e-10
0.00368426
3.07057e-10
0.00368426
-1.47365e-13
0.00368426
3.92187e-10
0.00368426
1.13438e-10
0.00368426
4.4936e-10
0.00368426
1.69998e-10
0.00368426
5.50274e-10
0.00368426
3.96691e-10
0.00368426
7.68872e-10
0.00368426
6.23264e-10
0.00368426
1.11903e-09
0.00368426
1.37126e-09
0.00368426
2.37823e-09
0.00368425
3.32349e-09
0.00368425
5.27744e-09
0.00368425
7.69113e-09
0.00368424
1.1697e-08
0.00368423
1.68171e-08
0.00368421
2.42718e-08
0.00368419
3.36838e-08
0.00368416
4.64331e-08
0.00368412
5.98578e-08
0.00368408
7.18558e-08
0.00368403
7.03951e-08
0.00368397
6.915e-08
0.00368385
1.59357e-07
0.00368327
7.87381e-07
0.00368128
2.95525e-06
0.00367648
6.88054e-06
3.66509e-06
0.00488997
0.00376759
0.00465361
0.000874046
0.00456544
0.000195736
0.00455531
2.53761e-05
0.00455905
-1.36571e-05
0.00456108
-4.10207e-06
0.00456086
4.21343e-07
0.00455912
4.68845e-06
0.00455709
5.04626e-06
0.00455512
4.94883e-06
0.0045534
4.245e-06
0.00455192
3.64826e-06
0.00455068
3.06704e-06
0.00454962
2.59552e-06
0.00454872
2.196e-06
0.00454796
1.86429e-06
0.00454731
1.58227e-06
0.00454676
1.34624e-06
0.00454629
1.14366e-06
0.00454588
9.71663e-07
0.00454554
8.22853e-07
0.00454525
6.96034e-07
0.00454501
5.85376e-07
0.0045448
4.88591e-07
0.00454463
4.07845e-07
0.00454449
3.3597e-07
0.00454437
2.7825e-07
0.00454427
2.26911e-07
0.00454419
1.86041e-07
0.00454413
1.5067e-07
0.00454408
1.21072e-07
0.00454403
9.69202e-08
0.004544
7.67815e-08
0.00454397
6.0802e-08
0.00454395
4.78336e-08
0.00454394
3.65657e-08
0.00454392
2.87154e-08
0.00454391
2.08804e-08
0.00454391
1.64298e-08
0.0045439
1.16431e-08
0.0045439
9.79033e-09
0.00454389
7.58844e-09
0.00454389
6.71141e-09
0.00454389
5.20224e-09
0.00454389
4.53357e-09
0.00454388
3.2605e-09
0.00454388
3.0968e-09
0.00454388
1.72071e-09
0.00454388
1.64199e-09
0.00454388
1.70872e-10
0.00454388
4.6173e-10
0.00454388
-4.54567e-10
0.00454388
8.20219e-11
0.00454388
-3.99429e-10
0.00454388
3.95037e-10
0.00454388
2.53796e-11
0.00454388
4.43205e-10
0.00454388
-2.17524e-10
0.00454388
2.05426e-10
0.00454388
-4.77275e-10
0.00454388
5.80706e-11
0.00454388
-5.94318e-10
0.00454388
5.16255e-11
0.00454388
-6.33243e-10
0.00454388
-1.53203e-10
0.00454388
-6.51731e-10
0.00454388
-8.23643e-12
0.00454388
-2.53736e-10
0.00454388
4.76223e-10
0.00454388
2.33076e-10
0.00454388
8.91338e-10
0.00454388
4.80562e-10
0.00454388
1.04723e-09
0.00454388
6.34034e-10
0.00454388
1.08773e-09
0.00454388
6.59704e-10
0.00454388
1.15975e-09
0.00454388
9.08476e-10
0.00454388
1.44142e-09
0.00454388
1.285e-09
0.00454388
2.08852e-09
0.00454388
2.60376e-09
0.00454388
4.27238e-09
0.00454387
5.96826e-09
0.00454387
9.25417e-09
0.00454386
1.34027e-08
0.00454386
2.01038e-08
0.00454384
2.88279e-08
0.00454383
4.15045e-08
0.0045438
5.77379e-08
0.00454377
7.96355e-08
0.00454373
1.03286e-07
0.00454367
1.26755e-07
0.00454361
1.32785e-07
0.00454352
1.61669e-07
0.00454331
3.66565e-07
0.00454246
1.63231e-06
0.00453992
5.5034e-06
0.00453279
1.40119e-05
1.68867e-05
0.0052075
0.0035601
0.00505282
0.00102872
0.0049754
0.000273159
0.00496598
3.48034e-05
0.00496827
-1.59521e-05
0.00497029
-6.12455e-06
0.00497009
6.28283e-07
0.00496858
6.196e-06
0.00496674
6.88962e-06
0.00496494
6.746e-06
0.00496336
5.82678e-06
0.004962
5.00769e-06
0.00496085
4.21942e-06
0.00495987
3.57387e-06
0.00495904
3.02782e-06
0.00495832
2.57421e-06
0.00495772
2.18826e-06
0.0049572
1.86537e-06
0.00495675
1.58823e-06
0.00495637
1.35227e-06
0.00495605
1.14764e-06
0.00495577
9.72703e-07
0.00495554
8.1996e-07
0.00495534
6.86394e-07
0.00495517
5.74494e-07
0.00495503
4.74909e-07
0.00495492
3.94108e-07
0.00495482
3.22339e-07
0.00495475
2.64537e-07
0.00495468
2.14732e-07
0.00495463
1.73231e-07
0.00495459
1.39291e-07
0.00495455
1.1082e-07
0.00495453
8.78818e-08
0.0049545
6.91447e-08
0.00495449
5.28847e-08
0.00495447
4.1314e-08
0.00495446
3.02266e-08
0.00495446
2.3839e-08
0.00495445
1.72811e-08
0.00495445
1.44544e-08
0.00495444
1.12661e-08
0.00495444
9.89706e-09
0.00495444
7.89036e-09
0.00495443
6.92279e-09
0.00495443
5.09735e-09
0.00495443
4.59223e-09
0.00495443
2.55436e-09
0.00495443
2.24063e-09
0.00495443
2.47236e-10
0.00495443
5.11109e-10
0.00495443
-6.65596e-10
0.00495443
2.91899e-11
0.00495443
-5.41632e-10
0.00495443
4.84492e-10
0.00495443
8.41202e-11
0.00495443
7.18465e-10
0.00495443
-3.93689e-11
0.00495443
4.81077e-10
0.00495443
-4.58404e-10
0.00495443
8.65702e-11
0.00495443
-8.47581e-10
0.00495443
-8.27088e-11
0.00495443
-9.04631e-10
0.00495443
-2.19326e-10
0.00495443
-7.48803e-10
0.00495443
1.49545e-10
0.00495443
-8.50277e-11
0.00495443
8.43822e-10
0.00495443
5.19862e-10
0.00495443
1.35851e-09
0.00495443
8.69269e-10
0.00495443
1.57804e-09
0.00495443
1.04447e-09
0.00495443
1.60055e-09
0.00495443
1.05639e-09
0.00495443
1.66633e-09
0.00495443
1.34065e-09
0.00495443
2.03031e-09
0.00495443
1.89556e-09
0.00495443
2.99787e-09
0.00495443
3.78236e-09
0.00495442
6.07481e-09
0.00495442
8.50461e-09
0.00495442
1.30603e-08
0.00495441
1.88738e-08
0.00495441
2.81221e-08
0.00495439
4.02854e-08
0.00495438
5.79328e-08
0.00495435
8.0687e-08
0.00495432
1.11422e-07
0.00495428
1.4552e-07
0.00495422
1.82795e-07
0.00495415
2.03378e-07
0.00495403
2.82664e-07
0.00495377
6.33368e-07
0.00495279
2.61372e-06
0.00495
8.29272e-06
0.00494144
2.25689e-05
3.30073e-05
0.00532007
0.00324003
0.00522963
0.00111916
0.00516895
0.000333844
0.00516089
4.28653e-05
0.00516212
-1.71804e-05
0.00516393
-7.94011e-06
0.00516378
7.76242e-07
0.00516258
7.40081e-06
0.00516104
8.42615e-06
0.00515954
8.24846e-06
0.00515821
7.1603e-06
0.00515706
6.15666e-06
0.00515608
5.1971e-06
0.00515525
4.40567e-06
0.00515454
3.73695e-06
0.00515393
3.17984e-06
0.00515341
2.70863e-06
0.00515296
2.31299e-06
0.00515258
1.97335e-06
0.00515225
1.68347e-06
0.00515196
1.43169e-06
0.00515172
1.21607e-06
0.00515151
1.02743e-06
0.00515134
8.62312e-07
0.00515119
7.23458e-07
0.00515106
5.99824e-07
0.00515096
4.98714e-07
0.00515087
4.09046e-07
0.0051508
3.36242e-07
0.00515074
2.73534e-07
0.00515069
2.21424e-07
0.00515065
1.78599e-07
0.00515062
1.4254e-07
0.0051506
1.13119e-07
0.00515058
8.90743e-08
0.00515056
6.82639e-08
0.00515055
5.32559e-08
0.00515054
3.91687e-08
0.00515053
3.08984e-08
0.00515053
2.26737e-08
0.00515052
1.88903e-08
0.00515052
1.47727e-08
0.00515051
1.29391e-08
0.00515051
1.04586e-08
0.00515051
9.19684e-09
0.00515051
6.80655e-09
0.00515051
5.92995e-09
0.00515051
3.27519e-09
0.0051505
2.73366e-09
0.0051505
2.92111e-10
0.0051505
5.17242e-10
0.00515051
-8.74368e-10
0.00515051
-1.68381e-11
0.00515051
-6.50596e-10
0.0051505
5.81145e-10
0.0051505
1.49487e-10
0.0051505
9.79237e-10
0.0051505
1.23319e-10
0.0051505
7.00597e-10
0.0051505
-4.89737e-10
0.0051505
3.9455e-11
0.00515051
-1.14827e-09
0.00515051
-2.78289e-10
0.00515051
-1.19165e-09
0.00515051
-3.07948e-10
0.00515051
-8.59154e-10
0.00515051
2.6232e-10
0.00515051
3.84326e-11
0.00515051
1.14303e-09
0.00515051
7.44246e-10
0.00515051
1.73928e-09
0.00515051
1.19011e-09
0.00515051
2.01811e-09
0.00515051
1.37419e-09
0.0051505
2.01777e-09
0.0051505
1.38014e-09
0.0051505
2.09126e-09
0.0051505
1.70783e-09
0.0051505
2.54289e-09
0.0051505
2.44145e-09
0.0051505
3.81758e-09
0.0051505
4.85168e-09
0.0051505
7.70033e-09
0.0051505
1.07863e-08
0.00515049
1.64623e-08
0.00515049
2.3743e-08
0.00515048
3.52138e-08
0.00515047
5.03843e-08
0.00515046
7.23837e-08
0.00515044
1.0089e-07
0.00515041
1.39597e-07
0.00515037
1.83727e-07
0.00515032
2.36244e-07
0.00515024
2.77171e-07
0.00515011
4.20684e-07
0.00514981
9.32661e-07
0.00514879
3.62663e-06
0.00514604
1.10511e-05
0.00513723
3.13788e-05
4.8959e-05
0.00534354
0.00289649
0.0053025
0.00116019
0.00525911
0.000377229
0.00525267
4.93079e-05
0.00525317
-1.76783e-05
0.00525471
-9.48271e-06
0.00525463
8.54016e-07
0.00525375
8.28402e-06
0.00525257
9.61135e-06
0.0052514
9.41289e-06
0.00525036
8.20416e-06
0.00524946
7.05921e-06
0.00524868
5.96885e-06
0.00524803
5.06423e-06
0.00524746
4.30046e-06
0.00524698
3.66323e-06
0.00524656
3.12573e-06
0.0052462
2.67374e-06
0.00524589
2.28551e-06
0.00524562
1.95339e-06
0.00524538
1.66464e-06
0.00524518
1.41635e-06
0.00524501
1.19923e-06
0.00524486
1.0092e-06
0.00524474
8.48578e-07
0.00524463
7.05444e-07
0.00524455
5.87597e-07
0.00524447
4.83261e-07
0.00524441
3.97968e-07
0.00524436
3.24411e-07
0.00524432
2.63382e-07
0.00524428
2.12978e-07
0.00524425
1.70461e-07
0.00524423
1.3535e-07
0.00524421
1.06728e-07
0.0052442
8.19818e-08
0.00524419
6.4002e-08
0.00524418
4.73014e-08
0.00524417
3.73169e-08
0.00524417
2.75935e-08
0.00524416
2.29181e-08
0.00524416
1.79644e-08
0.00524416
1.57015e-08
0.00524415
1.27721e-08
0.00524415
1.12513e-08
0.00524415
8.32803e-09
0.00524415
7.10984e-09
0.00524415
3.90731e-09
0.00524415
3.1661e-09
0.00524415
3.56961e-10
0.00524415
5.47735e-10
0.00524415
-1.02209e-09
0.00524415
-1.49373e-11
0.00524415
-7.0851e-10
0.00524415
6.89621e-10
0.00524415
2.07224e-10
0.00524415
1.19837e-09
0.00524415
2.44423e-10
0.00524415
8.67351e-10
0.00524415
-5.45783e-10
0.00524415
-2.80461e-11
0.00524415
-1.44039e-09
0.00524415
-4.84823e-10
0.00524415
-1.4654e-09
0.00524415
-3.98558e-10
0.00524415
-9.69335e-10
0.00524415
3.43097e-10
0.00524415
1.29077e-10
0.00524415
1.40441e-09
0.00524415
9.4352e-10
0.00524415
2.07186e-09
0.00524415
1.46891e-09
0.00524415
2.39715e-09
0.00524415
1.65055e-09
0.00524415
2.36339e-09
0.00524415
1.64029e-09
0.00524415
2.43938e-09
0.00524415
2.00768e-09
0.00524415
2.97236e-09
0.00524415
2.89913e-09
0.00524415
4.50996e-09
0.00524415
5.75652e-09
0.00524414
9.08181e-09
0.00524414
1.27191e-08
0.00524414
1.93266e-08
0.00524414
2.78151e-08
0.00524413
4.11073e-08
0.00524412
5.87318e-08
0.00524411
8.43018e-08
0.00524409
1.17583e-07
0.00524407
1.63158e-07
0.00524404
2.16504e-07
0.00524399
2.84702e-07
0.00524392
3.49747e-07
0.00524377
5.64759e-07
0.00524347
1.23336e-06
0.0052425
4.60281e-06
0.00523999
1.35594e-05
0.00523185
3.95115e-05
6.31035e-05
0.00533089
0.0025656
0.00532732
0.00116377
0.00529997
0.000404575
0.00529522
5.40596e-05
0.00529522
-1.76849e-05
0.00529647
-1.07329e-05
0.00529646
8.63956e-07
0.00529589
8.85268e-06
0.00529507
1.04401e-05
0.00529425
1.02338e-05
0.0052935
8.95024e-06
0.00529285
7.70774e-06
0.00529229
6.52728e-06
0.00529181
5.54308e-06
0.0052914
4.71256e-06
0.00529104
4.01885e-06
0.00529074
3.43441e-06
0.00529047
2.94252e-06
0.00529023
2.5198e-06
0.00529003
2.15742e-06
0.00528985
1.84205e-06
0.0052897
1.57007e-06
0.00528956
1.33207e-06
0.00528945
1.12358e-06
0.00528935
9.46742e-07
0.00528927
7.88993e-07
0.0052892
6.58406e-07
0.00528914
5.42672e-07
0.00528909
4.47711e-07
0.00528905
3.65817e-07
0.00528901
2.97707e-07
0.00528898
2.41232e-07
0.00528896
1.93586e-07
0.00528894
1.53809e-07
0.00528893
1.21509e-07
0.00528892
9.3576e-08
0.00528891
7.31655e-08
0.0052889
5.43121e-08
0.00528889
4.28657e-08
0.00528889
3.18705e-08
0.00528889
2.64168e-08
0.00528888
2.07565e-08
0.00528888
1.81037e-08
0.00528888
1.47574e-08
0.00528888
1.30173e-08
0.00528887
9.63089e-09
0.00528887
8.13073e-09
0.00528887
4.46934e-09
0.00528887
3.56404e-09
0.00528887
4.69966e-10
0.00528887
6.38354e-10
0.00528887
-1.07112e-09
0.00528887
6.45096e-11
0.00528887
-6.86733e-10
0.00528887
8.24354e-10
0.00528887
2.62768e-10
0.00528887
1.36122e-09
0.00528887
3.12172e-10
0.00528887
9.7889e-10
0.00528887
-6.08536e-10
0.00528887
-7.9901e-11
0.00528887
-1.67466e-09
0.00528887
-6.5873e-10
0.00528887
-1.6954e-09
0.00528887
-4.72796e-10
0.00528887
-1.05792e-09
0.00528887
4.10368e-10
0.00528887
2.11644e-10
0.00528887
1.65817e-09
0.00528887
1.16127e-09
0.00528887
2.39878e-09
0.00528887
1.74487e-09
0.00528887
2.75012e-09
0.00528887
1.91086e-09
0.00528887
2.6708e-09
0.00528887
1.86578e-09
0.00528887
2.72934e-09
0.00528887
2.25257e-09
0.00528887
3.32116e-09
0.00528887
3.26369e-09
0.00528887
5.05509e-09
0.00528887
6.4641e-09
0.00528887
1.01733e-08
0.00528887
1.42499e-08
0.00528887
2.15869e-08
0.00528886
3.10009e-08
0.00528886
4.56822e-08
0.00528885
6.51588e-08
0.00528884
9.34634e-08
0.00528883
1.30416e-07
0.00528881
1.8162e-07
0.00528879
2.43063e-07
0.00528874
3.26448e-07
0.00528868
4.16674e-07
0.00528854
7.03513e-07
0.00528825
1.51848e-06
0.00528738
5.47376e-06
0.00528527
1.5674e-05
0.00527841
4.63717e-05
7.46396e-05
0.00530575
0.00225986
0.00533056
0.00113895
0.0053174
0.000417737
0.00531432
5.71386e-05
0.00531399
-1.7352e-05
0.00531493
-1.16783e-05
0.00531499
8.1043e-07
0.00531471
9.13046e-06
0.00531422
1.09264e-05
0.00531373
1.07238e-05
0.00531327
9.40688e-06
0.00531287
8.10857e-06
0.00531252
6.87682e-06
0.00531222
5.8455e-06
0.00531196
4.97548e-06
0.00531173
4.24791e-06
0.00531153
3.63528e-06
0.00531135
3.11932e-06
0.0053112
2.67567e-06
0.00531106
2.29467e-06
0.00531094
1.96279e-06
0.00531083
1.6759e-06
0.00531074
1.42453e-06
0.00531066
1.20393e-06
0.00531059
1.0164e-06
0.00531053
8.48957e-07
0.00531048
7.09728e-07
0.00531043
5.86231e-07
0.0053104
4.84541e-07
0.00531037
3.96772e-07
0.00531034
3.23574e-07
0.00531032
2.62552e-07
0.0053103
2.11067e-07
0.00531029
1.67936e-07
0.00531028
1.32924e-07
0.00531027
1.02634e-07
0.00531026
8.0379e-08
0.00531025
5.98984e-08
0.00531025
4.73148e-08
0.00531025
3.53294e-08
0.00531024
2.92475e-08
0.00531024
2.30379e-08
0.00531024
2.00492e-08
0.00531024
1.63295e-08
0.00531023
1.44134e-08
0.00531023
1.06569e-08
0.00531023
8.95001e-09
0.00531023
4.92626e-09
0.00531023
3.89765e-09
0.00531023
6.00183e-10
0.00531023
7.64829e-10
0.00531023
-1.04039e-09
0.00531023
2.04467e-10
0.00531023
-5.95324e-10
0.00531023
9.77769e-10
0.00531023
3.12774e-10
0.00531023
1.45855e-09
0.00531023
3.14176e-10
0.00531023
1.02045e-09
0.00531023
-6.91129e-10
0.00531023
-1.24651e-10
0.00531023
-1.85064e-09
0.00531023
-7.9576e-10
0.00531023
-1.88062e-09
0.00531023
-5.32649e-10
0.00531023
-1.1215e-09
0.00531023
4.68774e-10
0.00531023
2.88862e-10
0.00531023
1.9025e-09
0.00531023
1.40038e-09
0.00531023
2.72513e-09
0.00531023
2.02216e-09
0.00531023
3.07931e-09
0.00531023
2.1599e-09
0.00531023
2.94636e-09
0.00531023
2.0623e-09
0.00531023
2.96129e-09
0.00531023
2.43712e-09
0.00531023
3.57882e-09
0.00531023
3.52141e-09
0.00531023
5.43091e-09
0.00531023
6.94154e-09
0.00531023
1.09345e-08
0.00531023
1.53339e-08
0.00531023
2.31981e-08
0.00531023
3.32527e-08
0.00531022
4.88864e-08
0.00531022
6.95891e-08
0.00531021
9.97941e-08
0.0053102
1.39277e-07
0.00531019
1.9461e-07
0.00531017
2.62828e-07
0.00531014
3.60141e-07
0.00531008
4.74781e-07
0.00530995
8.28554e-07
0.0053097
1.76849e-06
0.00530899
6.18991e-06
0.00530736
1.7306e-05
0.0053021
5.16255e-05
8.32116e-05
0.00527819
0.00198167
0.00532469
0.00109245
0.00532381
0.000418618
0.00532234
5.8611e-05
0.00532175
-1.67671e-05
0.00532238
-1.23072e-05
0.00532248
7.04877e-07
0.00532247
9.14697e-06
0.0053223
1.10939e-05
0.00532212
1.09042e-05
0.00532194
9.59054e-06
0.00532177
8.27489e-06
0.00532162
7.02773e-06
0.00532149
5.97958e-06
0.00532137
5.09549e-06
0.00532126
4.35522e-06
0.00532116
3.73198e-06
0.00532107
3.20678e-06
0.00532099
2.75492e-06
0.00532092
2.36626e-06
0.00532086
2.02746e-06
0.0053208
1.73394e-06
0.00532075
1.47642e-06
0.0053207
1.24987e-06
0.00532066
1.05704e-06
0.00532062
8.847e-07
0.00532059
7.40918e-07
0.00532057
6.13263e-07
0.00532054
5.07786e-07
0.00532052
4.16642e-07
0.00532051
3.40366e-07
0.00532049
2.76485e-07
0.00532048
2.22642e-07
0.00532047
1.77372e-07
0.00532046
1.40721e-07
0.00532046
1.0873e-07
0.00532045
8.53614e-08
0.00532045
6.37986e-08
0.00532045
5.04503e-08
0.00532044
3.78052e-08
0.00532044
3.12863e-08
0.00532044
2.47029e-08
0.00532044
2.14458e-08
0.00532044
1.74204e-08
0.00532044
1.5377e-08
0.00532043
1.1358e-08
0.00532043
9.52992e-09
0.00532043
5.24252e-09
0.00532043
4.13303e-09
0.00532043
7.11961e-10
0.00532043
8.9558e-10
0.00532043
-9.61248e-10
0.00532043
3.73698e-10
0.00532043
-4.61534e-10
0.00532043
1.13117e-09
0.00532043
3.49897e-10
0.00532043
1.49017e-09
0.00532043
2.48878e-10
0.00532043
9.85002e-10
0.00532043
-8.08184e-10
0.00532043
-1.81867e-10
0.00532043
-1.98539e-09
0.00532043
-9.04982e-10
0.00532043
-2.02726e-09
0.00532043
-5.81436e-10
0.00532043
-1.15925e-09
0.00532043
5.22614e-10
0.00532043
3.59813e-10
0.00532043
2.12579e-09
0.00532043
1.64651e-09
0.00532043
3.04328e-09
0.00532043
2.29452e-09
0.00532043
3.38211e-09
0.00532043
2.39583e-09
0.00532043
3.19275e-09
0.00532043
2.23284e-09
0.00532043
3.13613e-09
0.00532043
2.55626e-09
0.00532043
3.73838e-09
0.00532043
3.6625e-09
0.00532043
5.62782e-09
0.00532043
7.17149e-09
0.00532043
1.13409e-08
0.00532043
1.5944e-08
0.00532043
2.41299e-08
0.00532043
3.45448e-08
0.00532043
5.0705e-08
0.00532043
7.20273e-08
0.00532042
1.03164e-07
0.00532042
1.44206e-07
0.00532041
2.0227e-07
0.0053204
2.75574e-07
0.00532037
3.84558e-07
0.00532033
5.21066e-07
0.00532022
9.31928e-07
0.00532002
1.9678e-06
0.0053195
6.7178e-06
0.0053184
1.84057e-05
0.00531491
5.51162e-05
8.87182e-05
0.00525226
0.00172941
0.00531549
0.00102922
0.00532513
0.000408972
0.00532518
5.85649e-05
0.00532439
-1.59759e-05
0.00532469
-1.26096e-05
0.00532483
5.64197e-07
0.00532505
8.93352e-06
0.00532517
1.09708e-05
0.00532527
1.08003e-05
0.00532534
9.52169e-06
0.00532539
8.22334e-06
0.00532543
6.99324e-06
0.00532545
5.95593e-06
0.00532547
5.08107e-06
0.00532547
4.34755e-06
0.00532548
3.72987e-06
0.00532547
3.20906e-06
0.00532547
2.76072e-06
0.00532546
2.37458e-06
0.00532545
2.03773e-06
0.00532544
1.74535e-06
0.00532542
1.48848e-06
0.00532541
1.26189e-06
0.0053254
1.06888e-06
0.00532539
8.96241e-07
0.00532538
7.51863e-07
0.00532537
6.23511e-07
0.00532536
5.1713e-07
0.00532535
4.25107e-07
0.00532534
3.47796e-07
0.00532534
2.82779e-07
0.00532533
2.28047e-07
0.00532533
1.81873e-07
0.00532532
1.44614e-07
0.00532532
1.11808e-07
0.00532532
8.79595e-08
0.00532531
6.58904e-08
0.00532531
5.2154e-08
0.00532531
3.91923e-08
0.00532531
3.24374e-08
0.00532531
2.56556e-08
0.00532531
2.21986e-08
0.00532531
1.79627e-08
0.00532531
1.58587e-08
0.00532531
1.16935e-08
0.00532531
9.84012e-09
0.00532531
5.39966e-09
0.0053253
4.25467e-09
0.0053253
7.82483e-10
0.0053253
1.00963e-09
0.0053253
-8.62235e-10
0.0053253
5.40682e-10
0.0053253
-3.20812e-10
0.0053253
1.26305e-09
0.0053253
3.6525e-10
0.0053253
1.46421e-09
0.0053253
1.23673e-10
0.0053253
8.77307e-10
0.0053253
-9.6838e-10
0.00532531
-2.70776e-10
0.00532531
-2.10364e-09
0.00532531
-1.00015e-09
0.00532531
-2.14491e-09
0.00532531
-6.21317e-10
0.00532531
-1.17258e-09
0.00532531
5.75778e-10
0.00532531
4.2057e-10
0.00532531
2.31449e-09
0.00532531
1.87861e-09
0.00532531
3.33862e-09
0.00532531
2.55253e-09
0.00532531
3.65516e-09
0.00532531
2.61642e-09
0.00532531
3.41185e-09
0.00532531
2.38029e-09
0.00532531
3.25796e-09
0.00532531
2.61052e-09
0.00532531
3.79971e-09
0.00532531
3.68597e-09
0.00532531
5.64855e-09
0.00532531
7.15534e-09
0.00532531
1.13815e-08
0.00532531
1.6067e-08
0.00532531
2.43675e-08
0.00532531
3.4858e-08
0.00532531
5.11214e-08
0.00532531
7.25488e-08
0.0053253
1.03831e-07
0.0053253
1.453e-07
0.0053253
2.04623e-07
0.0053253
2.81108e-07
0.00532528
3.98754e-07
0.00532525
5.52894e-07
0.00532517
1.00714e-06
0.00532504
2.10535e-06
0.00532472
7.03653e-06
0.00532417
1.8951e-05
0.00532248
5.68042e-05
9.12103e-05
0.00522934
0.00150006
0.00530559
0.000952975
0.00532422
0.000390346
0.00532568
5.70983e-05
0.00532471
-1.50008e-05
0.00532468
-1.25793e-05
0.00532483
4.07088e-07
0.00532525
8.52131e-06
0.00532563
1.05865e-05
0.00532599
1.04393e-05
0.00532629
9.22271e-06
0.00532654
7.97233e-06
0.00532675
6.78821e-06
0.00532692
5.7866e-06
0.00532706
4.94198e-06
0.00532717
4.23282e-06
0.00532727
3.6354e-06
0.00532734
3.13137e-06
0.00532741
2.69723e-06
0.00532746
2.3229e-06
0.0053275
1.99611e-06
0.00532753
1.71202e-06
0.00532756
1.46218e-06
0.00532758
1.2411e-06
0.0053276
1.05275e-06
0.00532761
8.84135e-07
0.00532762
7.42906e-07
0.00532762
6.17134e-07
0.00532763
5.12618e-07
0.00532763
4.22135e-07
0.00532763
3.45831e-07
0.00532763
2.81399e-07
0.00532763
2.2722e-07
0.00532763
1.81369e-07
0.00532763
1.44514e-07
0.00532763
1.11753e-07
0.00532763
8.806e-08
0.00532763
6.6056e-08
0.00532763
5.23814e-08
0.00532763
3.94517e-08
0.00532763
3.26766e-08
0.00532763
2.58588e-08
0.00532763
2.23211e-08
0.00532763
1.79267e-08
0.00532763
1.58287e-08
0.00532763
1.16224e-08
0.00532763
9.83688e-09
0.00532763
5.37965e-09
0.00532763
4.26701e-09
0.00532763
8.08156e-10
0.00532763
1.1025e-09
0.00532763
-7.61709e-10
0.00532763
6.83089e-10
0.00532763
-2.04211e-10
0.00532763
1.35383e-09
0.00532763
3.52355e-10
0.00532763
1.39123e-09
0.00532763
-4.76978e-11
0.00532763
7.10246e-10
0.00532763
-1.1722e-09
0.00532763
-4.03201e-10
0.00532763
-2.22742e-09
0.00532763
-1.09481e-09
0.00532763
-2.24242e-09
0.00532763
-6.53595e-10
0.00532763
-1.1661e-09
0.00532763
6.30954e-10
0.00532763
4.69059e-10
0.00532763
2.45839e-09
0.00532763
2.07755e-09
0.00532763
3.59381e-09
0.00532763
2.78722e-09
0.00532763
3.89451e-09
0.00532763
2.81976e-09
0.00532763
3.60404e-09
0.00532763
2.50673e-09
0.00532763
3.33339e-09
0.00532763
2.60561e-09
0.00532763
3.76713e-09
0.00532763
3.59888e-09
0.00532763
5.50113e-09
0.00532763
6.90746e-09
0.00532763
1.10616e-08
0.00532763
1.56835e-08
0.00532764
2.39262e-08
0.00532764
3.42443e-08
0.00532764
5.02392e-08
0.00532764
7.12356e-08
0.00532764
1.01918e-07
0.00532764
1.42734e-07
0.00532765
2.01781e-07
0.00532765
2.79353e-07
0.00532764
4.02058e-07
0.00532763
5.68281e-07
0.00532759
1.04953e-06
0.00532752
2.17399e-06
0.00532742
7.13568e-06
0.00532743
1.89411e-05
0.00532751
5.67276e-05
9.08313e-05
0.00520974
0.00129033
0.00529616
0.000866552
0.00532241
0.000364097
0.00532519
5.43156e-05
0.00532404
-1.38532e-05
0.00532368
-1.22158e-05
0.00532384
2.51316e-07
0.00532442
7.94014e-06
0.00532503
9.97078e-06
0.00532562
9.84838e-06
0.00532613
8.71676e-06
0.00532656
7.54113e-06
0.00532692
6.42842e-06
0.00532722
5.48454e-06
0.00532748
4.68886e-06
0.00532769
4.01979e-06
0.00532787
3.45581e-06
0.00532802
2.9797e-06
0.00532815
2.56936e-06
0.00532826
2.21523e-06
0.00532835
1.90582e-06
0.00532842
1.63656e-06
0.00532848
1.39959e-06
0.00532854
1.18922e-06
0.00532858
1.01003e-06
0.00532861
8.4941e-07
0.00532864
7.14815e-07
0.00532866
5.9468e-07
0.00532868
4.94639e-07
0.0053287
4.07979e-07
0.00532871
3.34664e-07
0.00532872
2.72498e-07
0.00532872
2.20278e-07
0.00532873
1.75926e-07
0.00532873
1.40454e-07
0.00532873
1.08568e-07
0.00532874
8.56835e-08
0.00532874
6.43167e-08
0.00532874
5.1134e-08
0.00532874
3.85627e-08
0.00532874
3.19626e-08
0.00532874
2.52679e-08
0.00532874
2.17722e-08
0.00532874
1.73399e-08
0.00532874
1.5333e-08
0.00532874
1.11848e-08
0.00532874
9.55205e-09
0.00532874
5.17459e-09
0.00532874
4.17572e-09
0.00532874
7.99515e-10
0.00532874
1.18066e-09
0.00532874
-6.65116e-10
0.00532874
7.88683e-10
0.00532874
-1.31607e-10
0.00532874
1.38449e-09
0.00532874
3.04372e-10
0.00532874
1.2754e-09
0.00532874
-2.52377e-10
0.00532874
4.9629e-10
0.00532874
-1.41281e-09
0.00532874
-5.80051e-10
0.00532874
-2.36752e-09
0.00532874
-1.19693e-09
0.00532874
-2.32395e-09
0.00532874
-6.79188e-10
0.00532874
-1.1472e-09
0.00532874
6.85327e-10
0.00532874
5.07383e-10
0.00532874
2.55169e-09
0.00532874
2.22941e-09
0.00532874
3.79144e-09
0.00532874
2.98607e-09
0.00532874
4.09257e-09
0.00532874
2.9993e-09
0.00532874
3.76494e-09
0.00532874
2.60911e-09
0.00532874
3.36605e-09
0.00532874
2.54696e-09
0.00532874
3.64316e-09
0.00532875
3.40664e-09
0.00532875
5.1947e-09
0.00532875
6.43165e-09
0.00532875
1.04255e-08
0.00532875
1.48455e-08
0.00532875
2.28396e-08
0.00532875
3.27499e-08
0.00532875
4.81334e-08
0.00532876
6.82073e-08
0.00532876
9.75763e-08
0.00532877
1.36728e-07
0.00532877
1.93961e-07
0.00532878
2.70393e-07
0.00532879
3.94127e-07
0.00532879
5.65983e-07
0.00532879
1.05619e-06
0.00532879
2.17006e-06
0.00532891
7.0138e-06
0.00532946
1.83914e-05
0.00533121
5.49771e-05
8.77828e-05
0.00519328
0.00109705
0.00528767
0.000772153
0.00532035
0.000331417
0.00532434
5.03284e-05
0.00532303
-1.25417e-05
0.00532234
-1.1527e-05
0.00532248
1.11939e-07
0.0053232
7.21769e-06
0.00532402
9.1528e-06
0.00532481
9.05497e-06
0.0053255
8.02727e-06
0.00532609
6.94952e-06
0.00532659
5.93024e-06
0.00532701
5.06333e-06
0.00532737
4.33299e-06
0.00532767
3.71785e-06
0.00532793
3.19898e-06
0.00532815
2.76066e-06
0.00532833
2.38265e-06
0.00532849
2.05618e-06
0.00532863
1.77071e-06
0.00532874
1.52215e-06
0.00532884
1.30333e-06
0.00532892
1.10843e-06
0.00532899
9.4251e-07
0.00532904
7.93515e-07
0.00532909
6.68744e-07
0.00532913
5.57054e-07
0.00532916
4.63903e-07
0.00532918
3.83167e-07
0.0053292
3.14711e-07
0.00532922
2.56412e-07
0.00532923
2.07486e-07
0.00532924
1.65736e-07
0.00532925
1.32569e-07
0.00532925
1.02363e-07
0.00532926
8.09248e-08
0.00532926
6.0742e-08
0.00532926
4.84598e-08
0.00532927
3.65521e-08
0.00532927
3.0324e-08
0.00532927
2.39123e-08
0.00532927
2.05796e-08
0.00532927
1.622e-08
0.00532927
1.43698e-08
0.00532927
1.03738e-08
0.00532927
9.00231e-09
0.00532927
4.81097e-09
0.00532927
3.98452e-09
0.00532927
7.67798e-10
0.00532927
1.25467e-09
0.00532927
-5.6258e-10
0.00532927
8.5758e-10
0.00532927
-1.10233e-10
0.00532927
1.33924e-09
0.00532927
2.05777e-10
0.00532927
1.11245e-09
0.00532927
-4.87073e-10
0.00532927
2.41833e-10
0.00532927
-1.6801e-09
0.00532927
-7.92072e-10
0.00532927
-2.52031e-09
0.00532927
-1.30102e-09
0.00532927
-2.3862e-09
0.00532927
-6.94583e-10
0.00532927
-1.12066e-09
0.00532927
7.28907e-10
0.00532928
5.35552e-10
0.00532928
2.59345e-09
0.00532928
2.318e-09
0.00532928
3.93632e-09
0.00532928
3.1374e-09
0.00532928
4.25403e-09
0.00532928
3.14571e-09
0.00532928
3.89189e-09