/*--------------------------------*- C++ -*----------------------------------*\
| =========                 |                                                 |
| \\      /  F ield         | OpenFOAM: The Open Source CFD Toolbox           |
|  \\    /   O peration     | Version:  v1906                                 |
|   \\  /    A nd           | Web:      www.OpenFOAM.com                      |
|    \\/     M anipulation  |                                                 |
\*---------------------------------------------------------------------------*/
FoamFile
{
    version     2.0;
    format      ascii;
    class       surfaceScalarField;
    location    "1.5";
    object      phi;
}
// * * * * * * * * * * * * * * * * * * * * * * * * * * * * * * * * * * * * * //

dimensions      [0 3 -1 0 0 0 0];
oriented        oriented;


internalField   nonuniform List<scalar> 
7860
(
0.00266534
0.00233466
0.00260249
6.28529e-05
0.00261622
-1.3732e-05
0.00260099
1.52329e-05
0.00260689
-5.89802e-06
0.00260004
6.85023e-06
0.00260204
-2.00681e-06
0.00259906
2.98459e-06
0.00259964
-5.84958e-07
0.00259832
1.32507e-06
0.00259845
-1.29342e-07
0.00259786
5.87591e-07
0.00259787
-9.62331e-09
0.00259761
2.56142e-07
0.0025976
1.05521e-08
0.00259749
1.08809e-07
0.00259748
8.6107e-09
0.00259744
4.48894e-08
0.00259744
4.25455e-09
0.00259742
1.81286e-08
0.00259742
1.87181e-09
0.00259741
6.94625e-09
0.00259741
8.66246e-10
0.00259741
2.89385e-09
0.0025974
3.56554e-10
0.0025974
9.55848e-10
0.0025974
1.12982e-10
0.0025974
4.44239e-10
0.0025974
-3.98038e-11
0.0025974
2.23173e-10
0.0025974
3.15634e-11
0.0025974
-1.72186e-10
0.0025974
1.8386e-10
0.0025974
7.06745e-11
0.0025974
5.87877e-11
0.0025974
-2.28101e-11
0.0025974
8.16365e-11
0.0025974
-1.53827e-10
0.0025974
3.5776e-11
0.0025974
4.28083e-11
0.0025974
6.35163e-11
0.0025974
1.08894e-10
0.0025974
1.82032e-10
0.0025974
-1.04824e-10
0.0025974
1.26634e-10
0.0025974
-8.33219e-11
0.0025974
-8.60769e-11
0.0025974
-1.93839e-10
0.0025974
-9.81891e-11
0.0025974
-1.72521e-10
0.0025974
5.46725e-12
0.0025974
-9.34198e-11
0.0025974
1.11178e-10
0.0025974
-8.55864e-11
0.0025974
1.50883e-10
0.0025974
-1.06445e-10
0.0025974
1.34581e-10
0.0025974
2.90002e-11
0.0025974
8.74896e-11
0.0025974
1.48592e-11
0.0025974
8.33057e-11
0.0025974
-3.66795e-11
0.0025974
8.73458e-11
0.0025974
-8.24988e-11
0.0025974
7.26614e-11
0.0025974
-8.50729e-11
0.0025974
1.17492e-10
0.0025974
-1.27737e-12
0.0025974
4.1447e-11
0.0025974
-6.68975e-11
0.0025974
2.81354e-11
0.0025974
-9.46385e-11
0.0025974
-2.9938e-11
0.0025974
-1.49072e-10
0.0025974
4.53398e-11
0.0025974
-1.6535e-10
0.0025974
8.12349e-11
0.0025974
-6.28531e-11
0.0025974
-1.04374e-12
0.0025974
-2.9874e-11
0.0025974
-6.73098e-11
0.0025974
-4.0636e-11
0.0025974
-6.35599e-11
0.0025974
-5.96277e-11
0.0025974
3.15704e-11
0.0025974
-4.78407e-11
0.0025974
1.27949e-10
0.0025974
4.63593e-11
0.0025974
3.60606e-10
0.0025974
4.39695e-10
0.0025974
1.2624e-09
0.0025974
1.97949e-09
0.00259739
4.83663e-09
0.00259739
7.48316e-09
0.00259737
1.7765e-08
0.00259735
1.9447e-08
0.0025973
5.27411e-08
0.00259733
-2.78645e-08
0.00259629
1.0378e-06
-2.60719e-07
0.00439873
0.00293593
0.00434242
0.000119159
0.0043544
-2.57089e-05
0.00433592
3.37063e-05
0.00434222
-1.21986e-05
0.00433362
1.54539e-05
0.00433564
-4.02944e-06
0.00433181
6.81791e-06
0.00433229
-1.06484e-06
0.00433054
3.06959e-06
0.00433057
-1.58058e-07
0.00432978
1.38189e-06
0.00432972
4.70652e-08
0.00432937
6.11153e-07
0.00432932
5.82664e-08
0.00432916
2.63324e-07
0.00432914
3.56382e-08
0.00432907
1.09974e-07
0.00432906
1.70699e-08
0.00432903
4.48229e-08
0.00432903
7.40426e-09
0.00432902
1.73765e-08
0.00432901
3.23323e-09
0.00432901
7.28175e-09
0.00432901
1.42429e-09
0.00432901
2.59003e-09
0.00432901
5.768e-10
0.00432901
1.03348e-09
0.00432901
8.85246e-11
0.00432901
3.20936e-10
0.00432901
1.09501e-10
0.00432901
-2.71858e-10
0.00432901
3.60078e-10
0.00432901
2.2599e-10
0.004329
2.95392e-10
0.004329
-8.53868e-11
0.004329
3.05388e-10
0.004329
-2.13832e-10
0.004329
1.03416e-10
0.004329
9.97822e-11
0.004329
3.38416e-10
0.004329
1.64704e-10
0.004329
4.64922e-10
0.004329
-1.62173e-10
0.004329
1.54972e-10
0.004329
-2.13069e-10
0.004329
-2.31299e-10
0.004329
-5.19953e-10
0.004329
-1.80476e-10
0.00432901
-3.49094e-10
0.00432901
2.19828e-11
0.00432901
-2.31239e-10
0.00432901
2.40412e-10
0.00432901
-1.87417e-10
0.00432901
2.84161e-10
0.00432901
-1.75479e-10
0.004329
2.94867e-10
0.004329
9.57664e-11
0.004329
2.84643e-10
0.004329
3.19616e-11
0.004329
2.35656e-10
0.004329
-1.0803e-10
0.004329
1.858e-10
0.004329
-2.42839e-10
0.004329
1.05819e-10
0.004329
-1.95179e-10
0.004329
2.31541e-10
0.004329
-1.30593e-11
0.004329
1.50499e-10
0.004329
-1.40504e-10
0.004329
9.95025e-11
0.004329
-1.803e-10
0.004329
-4.35537e-11
0.004329
-3.17835e-10
0.004329
5.21463e-11
0.004329
-3.11732e-10
0.004329
1.0122e-10
0.004329
-1.27948e-10
0.004329
2.53406e-11
0.004329
-1.18069e-10
0.004329
-8.17603e-11
0.004329
-1.64379e-10
0.004329
-9.85298e-11
0.004329
-1.94224e-10
0.004329
5.12791e-11
0.004329
-7.74404e-11
0.004329
2.61442e-10
0.004329
1.83585e-10
0.004329
9.23247e-10
0.004329
1.22836e-09
0.004329
3.27889e-09
0.004329
5.16094e-09
0.00432899
1.22998e-08
0.00432898
1.91407e-08
0.00432895
4.54345e-08
0.00432892
4.95034e-08
0.00432882
1.53729e-07
0.00432883
-3.2264e-08
0.00432708
2.78271e-06
5.32174e-06
0.00495251
0.00298343
0.00492512
0.000146549
0.00492774
-2.83295e-05
0.00491528
4.61632e-05
0.00491803
-1.49457e-05
0.00491171
2.17697e-05
0.00491237
-4.68374e-06
0.00490942
9.76808e-06
0.00490936
-1.00491e-06
0.00490795
4.47894e-06
0.00490775
3.49759e-08
0.00490708
2.05151e-06
0.00490693
1.98417e-07
0.00490662
9.2243e-07
0.00490653
1.47229e-07
0.00490639
4.03416e-07
0.00490634
8.06709e-08
0.00490628
1.70614e-07
0.00490626
3.77821e-08
0.00490624
7.01989e-08
0.00490623
1.63315e-08
0.00490622
2.7499e-08
0.00490622
7.01932e-09
0.00490621
1.16647e-08
0.00490621
3.16649e-09
0.00490621
4.28623e-09
0.00490621
1.28146e-09
0.00490621
1.54338e-09
0.00490621
3.2053e-10
0.00490621
3.12429e-10
0.00490621
2.14993e-10
0.00490621
-3.09598e-10
0.00490621
4.91837e-10
0.00490621
4.31805e-10
0.00490621
6.56757e-10
0.00490621
-1.21587e-10
0.00490621
5.68266e-10
0.00490621
-1.83652e-10
0.00490621
1.93385e-10
0.00490621
1.93268e-10
0.00490621
7.11522e-10
0.0049062
2.12418e-10
0.0049062
7.88456e-10
0.0049062
-1.54835e-10
0.0049062
9.06999e-11
0.0049062
-3.42002e-10
0.0049062
-3.7644e-10
0.00490621
-8.50588e-10
0.00490621
-2.378e-10
0.00490621
-4.87676e-10
0.00490621
4.17024e-11
0.00490621
-3.5736e-10
0.00490621
3.56429e-10
0.00490621
-2.71089e-10
0.00490621
3.81945e-10
0.00490621
-1.93322e-10
0.00490621
4.48685e-10
0.00490621
1.80488e-10
0.0049062
5.20855e-10
0.0049062
6.51112e-11
0.0049062
4.00273e-10
0.0049062
-1.84164e-10
0.0049062
2.72038e-10
0.0049062
-4.15845e-10
0.0049062
1.14967e-10
0.0049062
-2.86246e-10
0.0049062
3.43551e-10
0.0049062
9.36616e-13
0.0049062
3.03353e-10
0.0049062
-1.84495e-10
0.0049062
1.8042e-10
0.0049062
-2.39711e-10
0.0049062
-4.3826e-11
0.0049062
-4.63313e-10
0.0049062
3.29269e-11
0.0049062
-4.13995e-10
0.0049062
8.55257e-11
0.0049062
-1.68127e-10
0.0049062
6.82896e-11
0.0049062
-2.20553e-10
0.0049062
-7.53242e-11
0.0049062
-3.27054e-10
0.0049062
-1.39843e-10
0.0049062
-3.59717e-10
0.0049062
2.78148e-11
0.0049062
-9.26771e-11
0.0049062
3.62041e-10
0.0049062
3.67007e-10
0.0049062
1.49394e-09
0.0049062
2.11792e-09
0.0049062
5.3328e-09
0.0049062
8.54234e-09
0.00490619
1.98856e-08
0.00490618
3.1203e-08
0.00490615
7.43082e-08
0.00490612
8.031e-08
0.00490599
2.80678e-07
0.00490597
-4.85905e-09
0.00490369
5.05666e-06
1.40717e-05
0.00513044
0.00285299
0.00511615
0.000160841
0.00511622
-2.83986e-05
0.00510731
5.50659e-05
0.00510863
-1.62587e-05
0.0051038
2.6595e-05
0.00510395
-4.83774e-06
0.00510164
1.20789e-05
0.00510141
-7.69291e-07
0.00510027
5.61977e-06
0.00510001
2.86911e-07
0.00509945
2.61164e-06
0.00509928
3.71369e-07
0.00509901
1.19067e-06
0.00509891
2.45371e-07
0.00509879
5.27513e-07
0.00509874
1.30067e-07
0.00509869
2.25653e-07
0.00509866
6.07009e-08
0.00509864
9.36482e-08
0.00509863
2.63528e-08
0.00509862
3.70844e-08
0.00509862
1.13402e-08
0.00509861
1.58754e-08
0.00509861
5.15993e-09
0.00509861
5.95209e-09
0.00509861
2.06642e-09
0.00509861
2.01116e-09
0.00509861
5.72611e-10
0.00509861
2.83889e-10
0.00509861
2.9667e-10
0.00509861
-3.4144e-10
0.00509861
6.02199e-10
0.00509861
6.32025e-10
0.00509861
1.08117e-09
0.00509861
-1.1919e-10
0.00509861
8.01982e-10
0.00509861
-1.2218e-10
0.00509861
3.07892e-10
0.00509861
3.03932e-10
0.00509861
1.08008e-09
0.0050986
2.52017e-10
0.0050986
1.10266e-09
0.0050986
-1.15308e-10
0.0050986
1.05115e-11
0.0050986
-4.64939e-10
0.0050986
-4.84007e-10
0.0050986
-1.13711e-09
0.00509861
-2.88487e-10
0.00509861
-6.08995e-10
0.00509861
6.47744e-11
0.00509861
-4.76597e-10
0.00509861
4.5714e-10
0.00509861
-3.69946e-10
0.00509861
4.58852e-10
0.00509861
-2.01535e-10
0.00509861
6.00183e-10
0.00509861
2.56929e-10
0.0050986
7.62873e-10
0.0050986
1.25115e-10
0.0050986
5.67179e-10
0.0050986
-2.47036e-10
0.0050986
3.52164e-10
0.0050986
-5.81486e-10
0.0050986
1.23546e-10
0.0050986
-3.702e-10
0.0050986
4.57214e-10
0.0050986
2.96642e-11
0.0050986
4.68313e-10
0.0050986
-2.02209e-10
0.0050986
2.5812e-10
0.0050986
-2.88692e-10
0.0050986
-3.01983e-11
0.0050986
-5.95222e-10
0.0050986
1.18103e-11
0.0050986
-5.09137e-10
0.0050986
7.50502e-11
0.0050986
-2.0417e-10
0.0050986
1.18443e-10
0.0050986
-3.1471e-10
0.0050986
-7.15086e-11
0.0050986
-4.88057e-10
0.0050986
-1.97411e-10
0.0050986
-5.2894e-10
0.0050986
-2.63203e-11
0.0050986
-1.22313e-10
0.0050986
4.36593e-10
0.0050986
5.29417e-10
0.0050986
2.00469e-09
0.0050986
2.9385e-09
0.0050986
7.18416e-09
0.0050986
1.16433e-08
0.00509859
2.67788e-08
0.00509858
4.20762e-08
0.00509856
1.01254e-07
0.00509853
1.08248e-07
0.00509839
4.18093e-07
0.00509834
4.70635e-08
0.00509585
7.5485e-06
2.28453e-05
0.00518427
0.00266872
0.00517722
0.000167889
0.0051765
-2.76747e-05
0.00517029
6.127e-05
0.00517084
-1.6809e-05
0.00516724
3.01999e-05
0.00516718
-4.78076e-06
0.0051654
1.38633e-05
0.00516512
-4.91504e-07
0.00516422
6.52079e-06
0.00516396
5.41627e-07
0.00516351
3.06642e-06
0.00516334
5.40624e-07
0.00516311
1.41451e-06
0.00516302
3.40867e-07
0.00516291
6.33973e-07
0.00516286
1.78352e-07
0.00516282
2.74003e-07
0.00516279
8.34232e-08
0.00516277
1.14616e-07
0.00516276
3.64404e-08
0.00516275
4.5856e-08
0.00516275
1.57733e-08
0.00516274
1.9787e-08
0.00516274
7.19258e-09
0.00516274
7.50234e-09
0.00516274
2.85811e-09
0.00516274
2.42785e-09
0.00516274
8.14651e-10
0.00516274
2.25223e-10
0.00516274
3.33963e-10
0.00516274
-3.77968e-10
0.00516274
6.97662e-10
0.00516274
8.00281e-10
0.00516274
1.52554e-09
0.00516274
-8.52307e-11
0.00516274
1.00981e-09
0.00516274
-3.04202e-11
0.00516274
4.41795e-10
0.00516274
4.14366e-10
0.00516274
1.43341e-09
0.00516274
2.72329e-10
0.00516274
1.37401e-09
0.00516274
-6.04388e-11
0.00516274
-7.45741e-11
0.00516274
-5.84853e-10
0.00516274
-5.63426e-10
0.00516274
-1.3851e-09
0.00516274
-3.32342e-10
0.00516274
-7.1734e-10
0.00516274
8.16281e-11
0.00516274
-5.99478e-10
0.00516274
5.38712e-10
0.00516274
-4.8651e-10
0.00516274
5.12638e-10
0.00516274
-2.11545e-10
0.00516274
7.39527e-10
0.00516274
3.199e-10
0.00516274
9.96803e-10
0.00516274
2.02633e-10
0.00516274
7.32801e-10
0.00516274
-3.00947e-10
0.00516274
4.24302e-10
0.00516274
-7.4212e-10
0.00516274
1.27501e-10
0.00516274
-4.53529e-10
0.00516274
5.61407e-10
0.00516274
5.87584e-11
0.00516274
6.25705e-10
0.00516274
-2.11624e-10
0.00516274
3.20582e-10
0.00516274
-3.41541e-10
0.00516274
-1.68897e-11
0.00516274
-7.23712e-10
0.00516274
-1.86856e-11
0.00516274
-6.05679e-10
0.00516274
6.54365e-11
0.00516274
-2.4173e-10
0.00516274
1.72014e-10
0.00516274
-4.0129e-10
0.00516274
-7.39984e-11
0.00516274
-6.44801e-10
0.00516274
-2.6673e-10
0.00516274
-6.98115e-10
0.00516274
-1.03907e-10
0.00516274
-1.69135e-10
0.00516274
4.86498e-10
0.00516274
6.61772e-10
0.00516274
2.44454e-09
0.00516274
3.65116e-09
0.00516274
8.77416e-09
0.00516273
1.43149e-08
0.00516273
3.27162e-08
0.00516272
5.12672e-08
0.0051627
1.25065e-07
0.00516267
1.32145e-07
0.00516253
5.55826e-07
0.00516248
1.04468e-07
0.00516012
9.90231e-06
3.04686e-05
0.0051973
0.00247142
0.00519521
0.000169983
0.00519421
-2.66781e-05
0.00519025
6.52286e-05
0.00519032
-1.6877e-05
0.0051878
3.27198e-05
0.00518762
-4.59876e-06
0.00518632
1.51583e-05
0.00518604
-2.12873e-07
0.00518536
7.2005e-06
0.00518513
7.72871e-07
0.00518478
3.42276e-06
0.00518462
6.91562e-07
0.00518444
1.59554e-06
0.00518436
4.26753e-07
0.00518427
7.21667e-07
0.00518423
2.22678e-07
0.00518419
3.14771e-07
0.00518416
1.0461e-07
0.00518415
1.32598e-07
0.00518414
4.59928e-08
0.00518413
5.35534e-08
0.00518413
2.00483e-08
0.00518412
2.3279e-08
0.00518412
9.13434e-09
0.00518412
8.88068e-09
0.00518412
3.61087e-09
0.00518412
2.774e-09
0.00518412
1.02316e-09
0.00518412
1.33993e-10
0.00518412
3.22404e-10
0.00518412
-4.30221e-10
0.00518412
7.81946e-10
0.00518412
9.26673e-10
0.00518412
1.9612e-09
0.00518412
-2.44129e-11
0.00518412
1.19852e-09
0.00518412
9.06821e-11
0.00518412
5.96521e-10
0.00518412
5.19266e-10
0.00518412
1.77251e-09
0.00518412
2.83108e-10
0.00518412
1.59445e-09
0.00518412
1.15258e-12
0.00518412
-1.5718e-10
0.00518412
-7.05859e-10
0.00518412
-6.28506e-10
0.00518412
-1.6083e-09
0.00518412
-3.76502e-10
0.00518412
-8.20084e-10
0.00518412
8.48808e-11
0.00518412
-7.29664e-10
0.00518412
6.03796e-10
0.00518412
-6.11598e-10
0.00518412
5.51402e-10
0.00518412
-2.24763e-10
0.00518412
8.64853e-10
0.00518412
3.70443e-10
0.00518412
1.21497e-09
0.00518412
2.88573e-10
0.00518412
8.92364e-10
0.00518412
-3.4942e-10
0.00518412
4.89969e-10
0.00518412
-8.94074e-10
0.00518412
1.28997e-10
0.00518412
-5.30992e-10
0.00518411
6.58084e-10
0.00518411
8.83782e-11
0.00518411
7.70369e-10
0.00518411
-2.20992e-10
0.00518411
3.6474e-10
0.00518411
-4.04463e-10
0.00518411
-1.28547e-11
0.00518411
-8.52507e-10
0.00518411
-6.0296e-11
0.00518412
-7.04078e-10
0.00518411
5.89368e-11
0.00518412
-2.78353e-10
0.00518412
2.30487e-10
0.00518412
-4.78973e-10
0.00518412
-8.42586e-11
0.00518412
-7.96926e-10
0.00518412
-3.47502e-10
0.00518412
-8.67851e-10
0.00518412
-2.01763e-10
0.00518412
-2.34647e-10
0.00518412
5.10821e-10
0.00518412
7.59873e-10
0.00518412
2.80796e-09
0.00518411
4.24003e-09
0.00518411
1.00764e-08
0.00518411
1.64946e-08
0.00518411
3.7584e-08
0.0051841
5.86403e-08
0.00518408
1.45134e-07
0.00518406
1.51618e-07
0.00518393
6.85249e-07
0.00518388
1.59495e-07
0.00518186
1.1923e-05
3.66346e-05
0.00519734
0.00227408
0.00519901
0.000168321
0.0051979
-2.55756e-05
0.00519588
6.72504e-05
0.00519561
-1.66025e-05
0.00519406
3.42626e-05
0.00519381
-4.342e-06
0.00519296
1.60003e-05
0.0051927
4.91848e-08
0.00519224
7.66646e-06
0.00519203
9.74072e-07
0.00519178
3.67883e-06
0.00519165
8.21135e-07
0.00519151
1.73089e-06
0.00519144
5.00657e-07
0.00519137
7.89536e-07
0.00519133
2.61128e-07
0.0051913
3.47252e-07
0.00519128
1.23255e-07
0.00519127
1.47253e-07
0.00519126
5.44373e-08
0.00519125
5.99715e-08
0.00519125
2.39172e-08
0.00519125
2.62427e-08
0.00519125
1.08871e-08
0.00519124
1.00323e-08
0.00519124
4.28445e-09
0.00519124
3.03612e-09
0.00519124
1.18682e-09
0.00519124
1.30301e-11
0.00519124
2.67741e-10
0.00519124
-5.02243e-10
0.00519124
8.59422e-10
0.00519124
1.01229e-09
0.00519124
2.37209e-09
0.00519124
6.01097e-11
0.00519124
1.37145e-09
0.00519124
2.39276e-10
0.00519124
7.77286e-10
0.00519124
6.16755e-10
0.00519124
2.09586e-09
0.00519124
2.93556e-10
0.00519124
1.76365e-09
0.00519124
6.58197e-11
0.00519124
-2.28929e-10
0.00519124
-8.24863e-10
0.00519124
-6.79296e-10
0.00519124
-1.80986e-09
0.00519124
-4.22732e-10
0.00519124
-9.17648e-10
0.00519124
7.66506e-11
0.00519124
-8.63816e-10
0.00519124
6.57112e-10
0.00519124
-7.34421e-10
0.00519124
5.85188e-10
0.00519124
-2.37221e-10
0.00519124
9.78964e-10
0.00519124
4.12097e-10
0.00519124
1.41414e-09
0.00519124
3.75249e-10
0.00519124
1.04066e-09
0.00519124
-3.97501e-10
0.00519124
5.48263e-10
0.00519124
-1.03684e-09
0.00519124
1.26849e-10
0.00519124
-6.00096e-10
0.00519124
7.48599e-10
0.00519124
1.19009e-10
0.00519124
9.01763e-10
0.00519124
-2.31814e-10
0.00519124
3.94986e-10
0.00519124
-4.74342e-10
0.00519124
-1.84907e-11
0.00519124
-9.79808e-10
0.00519124
-1.11355e-10
0.00519124
-8.01479e-10
0.00519124
5.8797e-11
0.00519124
-3.11269e-10
0.00519124
2.95043e-10
0.00519124
-5.45411e-10
0.00519124
-9.99323e-11
0.00519124
-9.40442e-10
0.00519124
-4.35765e-10
0.00519124
-1.03539e-09
0.00519124
-3.15092e-10
0.00519124
-3.174e-10
0.00519124
5.09044e-10
0.00519124
8.20078e-10
0.00519124
3.08866e-09
0.00519124
4.69483e-09
0.00519124
1.10767e-08
0.00519124
1.81579e-08
0.00519124
4.12922e-08
0.00519123
6.41469e-08
0.00519122
1.61132e-07
0.0051912
1.66508e-07
0.00519109
7.99683e-07
0.00519104
2.10021e-07
0.00518944
1.35216e-05
4.12945e-05
0.00519362
0.00208046
0.00519827
0.000163672
0.00519709
-2.4395e-05
0.00519676
6.75783e-05
0.00519622
-1.60618e-05
0.00519556
3.49163e-05
0.00519526
-4.03872e-06
0.00519484
1.64232e-05
0.00519461
2.81247e-07
0.00519434
7.93e-06
0.00519418
1.13812e-06
0.00519402
3.83728e-06
0.00519391
9.24844e-07
0.00519383
1.82047e-06
0.00519377
5.59898e-07
0.00519372
8.36921e-07
0.00519369
2.92228e-07
0.00519366
3.70896e-07
0.00519365
1.38532e-07
0.00519364
1.58262e-07
0.00519363
6.14308e-08
0.00519363
6.4863e-08
0.00519362
2.72236e-08
0.00519362
2.85745e-08
0.00519362
1.23771e-08
0.00519362
1.09097e-08
0.00519362
4.84099e-09
0.00519362
3.20066e-09
0.00519362
1.2962e-09
0.00519362
-1.36021e-10
0.00519362
1.7708e-10
0.00519362
-5.96127e-10
0.00519362
9.34032e-10
0.00519362
1.06282e-09
0.00519362
2.74903e-09
0.00519362
1.67252e-10
0.00519362
1.53192e-09
0.00519362
4.11886e-10
0.00519362
9.88647e-10
0.00519362
7.06536e-10
0.00519362
2.40042e-09
0.00519362
3.1093e-10
0.00519362
1.8857e-09
0.00519362
1.30827e-10
0.00519362
-2.84358e-10
0.00519362
-9.38644e-10
0.00519362
-7.14084e-10
0.00519362
-1.99064e-09
0.00519362
-4.72342e-10
0.00519362
-1.01096e-09
0.00519362
6.01338e-11
0.00519362
-9.98449e-10
0.00519362
7.02016e-10
0.00519362
-8.46991e-10
0.00519362
6.21892e-10
0.00519362
-2.44218e-10
0.00519362
1.08594e-09
0.00519362
4.49289e-10
0.00519362
1.59358e-09
0.00519362
4.57278e-10
0.00519362
1.17397e-09
0.00519362
-4.4915e-10
0.00519362
5.98264e-10
0.00519362
-1.17071e-09
0.00519362
1.19769e-10
0.00519362
-6.59438e-10
0.00519362
8.34888e-10
0.00519362
1.51951e-10
0.00519362
1.02149e-09
0.00519362
-2.43037e-10
0.00519362
4.17235e-10
0.00519362
-5.46089e-10
0.00519362
-3.24598e-11
0.00519362
-1.10392e-09
0.00519362
-1.70151e-10
0.00519362
-8.95896e-10
0.00519362
6.65637e-11
0.00519362
-3.39263e-10
0.00519362
3.64927e-10
0.00519362
-5.9949e-10
0.00519362
-1.18769e-10
0.00519362
-1.07193e-09
0.00519362
-5.27019e-10
0.00519362
-1.1974e-09
0.00519362
-4.38236e-10
0.00519362
-4.14163e-10
0.00519362
4.82384e-10
0.00519362
8.41222e-10
0.00519362
3.28279e-09
0.00519362
5.01008e-09
0.00519362
1.17701e-08
0.00519362
1.929e-08
0.00519361
4.38587e-08
0.00519361
6.77177e-08
0.0051936
1.72866e-07
0.00519359
1.76709e-07
0.0051935
8.93898e-07
0.00519345
2.52918e-07
0.00519231
1.46667e-05
4.44682e-05
0.00518912
0.00189134
0.00519621
0.00015658
0.00519493
-2.31163e-05
0.00519609
6.64233e-05
0.00519533
-1.53042e-05
0.00519549
3.47601e-05
0.00519515
-3.70558e-06
0.00519512
1.64571e-05
0.00519492
4.75972e-07
0.00519485
8.00174e-06
0.00519473
1.26028e-06
0.00519467
3.90122e-06
0.00519459
9.9946e-07
0.00519455
1.86462e-06
0.00519451
6.02503e-07
0.00519448
8.63288e-07
0.00519446
3.1491e-07
0.00519444
3.8517e-07
0.00519443
1.49886e-07
0.00519442
1.65297e-07
0.00519442
6.66734e-08
0.00519442
6.81124e-08
0.00519441
2.97726e-08
0.00519441
3.01973e-08
0.00519441
1.35518e-08
0.00519441
1.14782e-08
0.00519441
5.24937e-09
0.00519441
3.25694e-09
0.00519441
1.34396e-09
0.00519441
-3.13753e-10
0.00519441
5.55842e-11
0.00519441
-7.1343e-10
0.00519441
1.00757e-09
0.00519441
1.08371e-09
0.00519441
3.08544e-09
0.00519441
2.97095e-10
0.00519441
1.68363e-09
0.00519441
6.03933e-10
0.00519441
1.23299e-09
0.00519441
7.88352e-10
0.00519441
2.68058e-09
0.00519441
3.38751e-10
0.00519441
1.96511e-09
0.00519441
1.93892e-10
0.00519441
-3.21746e-10
0.00519441
-1.04439e-09
0.00519441
-7.33171e-10
0.00519441
-2.14984e-09
0.00519441
-5.27598e-10
0.00519441
-1.10173e-09
0.00519441
3.758e-11
0.00519441
-1.13013e-09
0.00519441
7.40069e-10
0.00519441
-9.45011e-10
0.00519441
6.65768e-10
0.00519441
-2.4246e-10
0.00519441
1.18882e-09
0.00519441
4.85725e-10
0.00519441
1.75336e-09
0.00519441
5.31902e-10
0.00519441
1.29134e-09
0.00519441
-5.05929e-10
0.00519441
6.40637e-10
0.00519441
-1.29491e-09
0.00519441
1.07566e-10
0.00519441
-7.08418e-10
0.00519441
9.18478e-10
0.00519441
1.87462e-10
0.00519441
1.13085e-09
0.00519441
-2.53286e-10
0.00519441
4.3674e-10
0.00519441
-6.14808e-10
0.00519441
-5.23482e-11
0.00519441
-1.22342e-09
0.00519441
-2.33796e-10
0.00519441
-9.85981e-10
0.00519441
8.34811e-11
0.00519441
-3.61416e-10
0.00519441
4.38357e-10
0.00519441
-6.4083e-10
0.00519441
-1.38757e-10
0.00519441
-1.18933e-09
0.00519441
-6.1717e-10
0.00519441
-1.35139e-09
0.00519441
-5.65953e-10
0.00519441
-5.21624e-10
0.00519441
4.32615e-10
0.00519441
8.23821e-10
0.00519441
3.38855e-09
0.00519441
5.18334e-09
0.00519441
1.21561e-08
0.00519441
1.98999e-08
0.00519441
4.52403e-08
0.00519441
6.94794e-08
0.0051944
1.80114e-07
0.00519439
1.82289e-07
0.00519433
9.63483e-07
0.00519429
2.86348e-07
0.00519361
1.53526e-05
4.62102e-05
0.00518479
0.00170655
0.00519391
0.000147465
0.0051925
-2.17127e-05
0.00519495
6.39765e-05
0.00519401
-1.43671e-05
0.0051949
3.38697e-05
0.00519455
-3.35454e-06
0.00519488
1.61315e-05
0.00519472
6.28741e-07
0.00519483
7.8927e-06
0.00519475
1.33784e-06
0.00519478
3.87411e-06
0.00519474
1.04308e-06
0.00519474
1.86403e-06
0.00519471
6.27182e-07
0.00519471
8.68458e-07
0.0051947
3.2838e-07
0.00519469
3.89779e-07
0.00519468
1.56881e-07
0.00519468
1.68109e-07
0.00519468
6.99976e-08
0.00519468
6.95879e-08
0.00519468
3.14479e-08
0.00519468
3.10562e-08
0.00519467
1.4322e-08
0.00519467
1.17029e-08
0.00519467
5.48447e-09
0.00519467
3.19832e-09
0.00519467
1.32304e-09
0.00519467
-5.24032e-10
0.00519467
-9.26777e-11
0.00519467
-8.51556e-10
0.00519467
1.08185e-09
0.00519467
1.08041e-09
0.00519467
3.377e-09
0.00519467
4.50015e-10
0.00519467
1.83091e-09
0.00519467
8.1007e-10
0.00519467
1.50953e-09
0.00519467
8.62138e-10
0.00519467
2.93047e-09
0.00519467
3.77833e-10
0.00519467
2.00619e-09
0.00519467
2.52433e-10
0.00519467
-3.44297e-10
0.00519467
-1.14109e-09
0.00519467
-7.41793e-10
0.00519467
-2.28503e-09
0.00519467
-5.9233e-10
0.00519467
-1.19256e-09
0.00519467
8.31962e-12
0.00519467
-1.25627e-09
0.00519467
7.70666e-10
0.00519467
-1.02737e-09
0.00519467
7.17214e-10
0.00519467
-2.30502e-10
0.00519467
1.28917e-09
0.00519467
5.2387e-10
0.00519467
1.89338e-09
0.00519467
5.97779e-10
0.00519467
1.39368e-09
0.00519467
-5.67075e-10
0.00519467
6.7709e-10
0.00519467
-1.40648e-09
0.00519467
9.17703e-11
0.00519467
-7.47085e-10
0.00519467
9.99972e-10
0.00519467
2.24556e-10
0.00519467
1.23024e-09
0.00519467
-2.61734e-10
0.00519467
4.56947e-10
0.00519467
-6.77321e-10
0.00519467
-7.60173e-11
0.00519467
-1.33808e-09
0.00519467
-2.99408e-10
0.00519467
-1.07244e-09
0.00519467
1.0914e-10
0.00519467
-3.77905e-10
0.00519467
5.12685e-10
0.00519467
-6.69686e-10
0.00519467
-1.58845e-10
0.00519467
-1.29175e-09
0.00519467
-7.03032e-10
0.00519467
-1.4956e-09
0.00519467
-6.93966e-10
0.00519467
-6.36605e-10
0.00519467
3.61639e-10
0.00519467
7.69672e-10
0.00519467
3.40663e-09
0.00519467
5.21804e-09
0.00519467
1.22282e-08
0.00519467
1.99866e-08
0.00519467
4.55083e-08
0.00519467
6.95252e-08
0.00519467
1.82747e-07
0.00519467
1.83334e-07
0.00519463
1.00531e-06
0.00519461
3.0931e-07
0.00519437
1.55879e-05
4.65974e-05
0.00518089
0.00152566
0.00519169
0.000136667
0.00519014
-2.01634e-05
0.00519371
6.04115e-05
0.00519262
-1.32809e-05
0.00519417
3.23191e-05
0.00519381
-2.9949e-06
0.00519447
1.54765e-05
0.00519436
7.36832e-07
0.00519464
7.61491e-06
0.00519461
1.36962e-06
0.00519472
3.76032e-06
0.00519471
1.05482e-06
0.00519475
1.81999e-06
0.00519475
6.33231e-07
0.00519476
8.52679e-07
0.00519476
3.32136e-07
0.00519476
3.84684e-07
0.00519476
1.59194e-07
0.00519476
1.66621e-07
0.00519476
7.12292e-08
0.00519476
6.9223e-08
0.00519476
3.21763e-08
0.00519476
3.11034e-08
0.00519476
1.46879e-08
0.00519476
1.15781e-08
0.00519476
5.53533e-09
0.00519476
3.02236e-09
0.00519476
1.23472e-09
0.00519476
-7.65319e-10
0.00519476
-2.65472e-10
0.00519476
-1.01682e-09
0.00519476
1.15457e-09
0.00519476
1.05701e-09
0.00519476
3.62378e-09
0.00519476
6.24498e-10
0.00519476
1.97859e-09
0.00519476
1.02399e-09
0.00519476
1.81526e-09
0.00519476
9.25766e-10
0.00519476
3.14437e-09
0.00519476
4.23864e-10
0.00519476
2.01743e-09
0.00519476
3.01939e-10
0.00519476
-3.43596e-10
0.00519476
-1.22825e-09
0.00519476
-7.32223e-10
0.00519476
-2.39668e-09
0.00519476
-6.58431e-10
0.00519476
-1.2846e-09
0.00519476
-1.77472e-11
0.00519476
-1.37297e-09
0.00519476
7.99488e-10
0.00519476
-1.0937e-09
0.00519476
7.74463e-10
0.00519476
-2.08164e-10
0.00519476
1.38745e-09
0.00519476
5.64214e-10
0.00519476
2.0131e-09
0.00519476
6.53357e-10
0.00519476
1.48174e-09
0.00519476
-6.32335e-10
0.00519476
7.07512e-10
0.00519476
-1.50818e-09
0.00519476
7.26993e-11
0.00519476
-7.75503e-10
0.00519476
1.07939e-09
0.00519476
2.61336e-10
0.00519476
1.31793e-09
0.00519476
-2.68633e-10
0.00519476
4.79713e-10
0.00519476
-7.318e-10
0.00519476
-1.02916e-10
0.00519476
-1.44258e-09
0.00519476
-3.65424e-10
0.00519476
-1.14901e-09
0.00519476
1.42133e-10
0.00519476
-3.90765e-10
0.00519476
5.84912e-10
0.00519476
-6.86347e-10
0.00519476
-1.79119e-10
0.00519476
-1.37908e-09
0.00519476
-7.83291e-10
0.00519476
-1.62792e-09
0.00519476
-8.19383e-10
0.00519476
-7.56124e-10
0.00519476
2.71775e-10
0.00519476
6.79067e-10
0.00519476
3.34081e-09
0.00519476
5.11701e-09
0.00519476
1.201e-08
0.00519476
1.95817e-08
0.00519476
4.46917e-08
0.00519477
6.79264e-08
0.00519477
1.80779e-07
0.00519477
1.79953e-07
0.00519476
1.01756e-06
0.00519475
3.212e-07
0.00519495
1.53909e-05
4.57215e-05
0.00517749
0.00134817
0.00518968
0.000124471
0.00518797
-1.84561e-05
0.0051925
5.58862e-05
0.00519129
-1.20706e-05
0.00519343
3.01801e-05
0.00519307
-2.63376e-06
0.00519402
1.45228e-05
0.00519396
7.99269e-07
0.00519439
7.18147e-06
0.00519441
1.35579e-06
0.0051946
3.56519e-06
0.00519462
1.03471e-06
0.00519471
1.7345e-06
0.00519472
6.2053e-07
0.00519476
8.16607e-07
0.00519476
3.26015e-07
0.00519478
3.70057e-07
0.00519478
1.56682e-07
0.00519479
1.60859e-07
0.00519479
7.02744e-08
0.00519479
6.70081e-08
0.00519479
3.19e-08
0.00519479
3.03183e-08
0.00519479
1.46187e-08
0.00519479
1.1101e-08
0.00519479
5.39861e-09
0.00519479
2.72892e-09
0.00519479
1.07107e-09
0.00519479
-1.0415e-09
0.00519479
-4.56208e-10
0.00519479
-1.20135e-09
0.00519479
1.22523e-09
0.00519479
1.01845e-09
0.00519479
3.82234e-09
0.00519479
8.2152e-10
0.00519479
2.1321e-09
0.00519479
1.23964e-09
0.00519479
2.14506e-09
0.00519479
9.80732e-10
0.00519479
3.31636e-09
0.00519479
4.74066e-10
0.00519479
2.00141e-09
0.00519479
3.4128e-10
0.00519479
-3.28294e-10
0.00519479
-1.30422e-09
0.00519479
-7.16618e-10
0.00519479
-2.48065e-09
0.00519479
-7.31821e-10
0.00519479
-1.37813e-09
0.00519479
-4.66813e-11
0.00519479
-1.47996e-09
0.00519479
8.22229e-10
0.00519479
-1.14641e-09
0.00519479
8.35606e-10
0.00519479
-1.7902e-10
0.00519479
1.4838e-09
0.00519479
6.07391e-10
0.00519479
2.11346e-09
0.00519479
6.98949e-10
0.00519479
1.55876e-09
0.00519479
-6.96769e-10
0.00519479
7.34589e-10
0.00519479
-1.59458e-09
0.00519479
5.17781e-11
0.00519479
-7.94338e-10
0.00519479
1.1562e-09
0.00519479
2.94882e-10
0.00519479
1.39488e-09
0.00519479
-2.74326e-10
0.00519479
5.05441e-10
0.00519479
-7.76683e-10
0.00519479
-1.32426e-10
0.00519479
-1.54018e-09
0.00519479
-4.28327e-10
0.00519479
-1.21971e-09
0.00519479
1.82219e-10
0.00519479
-3.99162e-10
0.00519479
6.5269e-10
0.00519479
-6.93142e-10
0.00519479
-1.97543e-10
0.00519479
-1.45325e-09
0.00519479
-8.55193e-10
0.00519479
-1.74819e-09
0.00519479
-9.38337e-10
0.00519479
-8.77579e-10
0.00519479
1.66121e-10
0.00519479
5.57738e-10
0.00519479
3.19473e-09
0.00519479
4.88927e-09
0.00519479
1.15168e-08
0.00519479
1.87106e-08
0.0051948
4.28373e-08
0.0051948
6.4779e-08
0.00519481
1.74315e-07
0.00519481
1.7233e-07
0.00519483
9.99602e-07
0.00519483
3.21774e-07
0.00519544
1.47875e-05
4.36844e-05
0.00517455
0.00117362
0.0051879
0.000111121
0.00518603
-1.6587e-05
0.00519138
5.05437e-05
0.00519006
-1.07576e-05
0.00519272
2.75228e-05
0.00519236
-2.27626e-06
0.00519358
1.33016e-05
0.00519357
8.16721e-07
0.00519414
6.60656e-06
0.0051942
1.29784e-06
0.00519447
3.29501e-06
0.00519452
9.83717e-07
0.00519464
1.61024e-06
0.00519468
5.89535e-07
0.00519473
7.61308e-07
0.00519475
3.1018e-07
0.00519477
3.46289e-07
0.00519478
1.49378e-07
0.00519479
1.50951e-07
0.00519479
6.71294e-08
0.0051948
6.29834e-08
0.0051948
3.06078e-08
0.0051948
2.8711e-08
0.0051948
1.41046e-08
0.0051948
1.02817e-08
0.0051948
5.08009e-09
0.0051948
2.32325e-09
0.0051948
8.33387e-10
0.0051948
-1.35056e-09
0.0051948
-6.62009e-10
0.0051948
-1.40672e-09
0.0051948
1.29255e-09
0.0051948
9.69767e-10
0.0051948
3.972e-09
0.0051948
1.03813e-09
0.0051948
2.29579e-09
0.0051948
1.45023e-09
0.0051948
2.49098e-09
0.0051948
1.02805e-09
0.0051948
3.44217e-09
0.0051948
5.24816e-10
0.0051948
1.96437e-09
0.0051948
3.69441e-10
0.0051948
-2.95046e-10
0.0051948
-1.36679e-09
0.0051948
-6.93855e-10
0.0051948
-2.538e-09
0.0051948
-8.05837e-10
0.0051948
-1.47253e-09
0.0051948
-7.34557e-11
0.0051948
-1.57571e-09
0.0051948
8.40416e-10
0.0051948
-1.1871e-09
0.0051948
8.98272e-10
0.0051948
-1.45449e-10
0.0051948
1.57696e-09
0.0051948
6.52547e-10
0.0051948
2.19416e-09
0.0051948
7.34283e-10
0.0051948
1.6261e-09
0.0051948
-7.57945e-10
0.0051948
7.58948e-10
0.0051948
-1.66681e-09
0.0051948
3.09054e-11
0.0051948
-8.04382e-10
0.0051948
1.2291e-09
0.0051948
3.23662e-10
0.0051948
1.46005e-09
0.0051948
-2.79656e-10
0.0051948
5.3298e-10
0.0051948
-8.11456e-10
0.0051948
-1.63679e-10
0.0051948
-1.62902e-09
0.0051948
-4.85475e-10