/*--------------------------------*- C++ -*----------------------------------*\
| =========                 |                                                 |
| \\      /  F ield         | OpenFOAM: The Open Source CFD Toolbox           |
|  \\    /   O peration     | Version:  v1906                                 |
|   \\  /    A nd           | Web:      www.OpenFOAM.com                      |
|    \\/     M anipulation  |                                                 |
\*---------------------------------------------------------------------------*/
FoamFile
{
    version     2.0;
    format      ascii;
    class       surfaceScalarField;
    location    "1.5";
    object      phi;
}
// * * * * * * * * * * * * * * * * * * * * * * * * * * * * * * * * * * * * * //

dimensions      [0 3 -1 0 0 0 0];
oriented        oriented;


internalField   nonuniform List<scalar> 
7860
(
0.00283437
0.00216563
0.00262126
0.000213111
0.00260891
1.23496e-05
0.00260642
2.49106e-06
0.00260914
-2.72453e-06
0.00260787
1.26537e-06
0.00260678
1.09728e-06
0.00260521
1.56977e-06
0.00260398
1.22481e-06
0.00260289
1.09187e-06
0.00260202
8.76847e-07
0.00260128
7.40799e-07
0.00260066
6.12542e-07
0.00260015
5.16082e-07
0.00259971
4.33529e-07
0.00259935
3.6708e-07
0.00259903
3.11337e-07
0.00259877
2.6562e-07
0.00259854
2.26129e-07
0.00259835
1.92488e-07
0.00259819
1.6295e-07
0.00259805
1.37706e-07
0.00259794
1.15548e-07
0.00259784
9.74195e-08
0.00259776
8.0993e-08
0.00259769
6.75225e-08
0.00259763
5.57695e-08
0.00259759
4.59508e-08
0.00259755
3.7491e-08
0.00259752
3.04673e-08
0.0025975
2.41242e-08
0.00259748
1.93781e-08
0.00259746
1.54997e-08
0.00259745
1.30905e-08
0.00259744
9.9079e-09
0.00259743
8.23472e-09
0.00259743
5.57255e-09
0.00259742
4.66521e-09
0.00259742
3.66574e-09
0.00259741
3.25365e-09
0.00259741
2.36741e-09
0.00259741
1.87783e-09
0.00259741
9.22402e-10
0.00259741
1.29633e-09
0.00259741
5.96817e-10
0.00259741
8.92932e-10
0.0025974
2.96349e-10
0.0025974
5.66353e-10
0.0025974
1.66004e-10
0.0025974
6.34918e-10
0.0025974
1.57564e-10
0.0025974
2.49148e-10
0.0025974
-1.16683e-10
0.0025974
1.85359e-10
0.0025974
-1.81438e-10
0.0025974
3.9518e-10
0.0025974
-1.55573e-10
0.0025974
2.66455e-10
0.0025974
-2.23123e-10
0.0025974
1.6385e-10
0.0025974
-1.53265e-10
0.0025974
3.01571e-10
0.0025974
-9.02056e-11
0.0025974
3.33032e-10
0.0025974
-1.49713e-10
0.0025974
1.63159e-10
0.0025974
-2.89749e-10
0.0025974
2.40426e-10
0.0025974
-6.74598e-11
0.0025974
4.08084e-10
0.0025974
1.22632e-10
0.0025974
2.01022e-10
0.0025974
-3.60472e-10
0.0025974
8.65898e-11
0.0025974
-1.72395e-10
0.0025974
2.63564e-10
0.0025974
2.5557e-10
0.0025974
3.6357e-10
0.0025974
9.62553e-11
0.0025974
4.10652e-10
0.0025974
3.58015e-10
0.0025974
1.04437e-09
0.0025974
1.22347e-09
0.0025974
2.14052e-09
0.0025974
2.36793e-09
0.00259739
3.63567e-09
0.00259739
4.90203e-09
0.00259738
7.05174e-09
0.00259737
1.01877e-08
0.00259735
1.4558e-08
0.00259734
1.96769e-08
0.00259731
2.65685e-08
0.00259727
3.37147e-08
0.00259724
3.7516e-08
0.0025972
3.36008e-08
0.00259718
2.27619e-08
0.00259708
1.01453e-07
0.00259638
6.95876e-07
0.00259378
2.6023e-06
-1.19038e-06
0.00456769
0.00259794
0.00437543
0.000405376
0.00434663
4.11461e-05
0.00434289
6.2372e-06
0.00434591
-5.74865e-06
0.00434439
2.78083e-06
0.00434278
2.71323e-06
0.00434058
3.76837e-06
0.00433879
3.01361e-06
0.00433721
2.67555e-06
0.00433592
2.16431e-06
0.00433483
1.82648e-06
0.00433393
1.51415e-06
0.00433317
1.27727e-06
0.00433253
1.07529e-06
0.00433198
9.12538e-07
0.00433152
7.7583e-07
0.00433112
6.63385e-07
0.00433078
5.6619e-07
0.00433049
4.83297e-07
0.00433024
4.10769e-07
0.00433003
3.48598e-07
0.00432985
2.93943e-07
0.0043297
2.48325e-07
0.00432958
2.07416e-07
0.00432947
1.73299e-07
0.00432938
1.43476e-07
0.00432931
1.18814e-07
0.00432925
9.71031e-08
0.0043292
7.9363e-08
0.00432916
6.37278e-08
0.00432913
5.15951e-08
0.0043291
4.12218e-08
0.00432908
3.42518e-08
0.00432907
2.63125e-08
0.00432905
2.16029e-08
0.00432904
1.56902e-08
0.00432903
1.30788e-08
0.00432903
1.01152e-08
0.00432902
8.589e-09
0.00432902
6.18274e-09
0.00432902
5.24341e-09
0.00432901
3.26317e-09
0.00432901
3.65501e-09
0.00432901
1.99702e-09
0.00432901
2.32638e-09
0.00432901
9.90607e-10
0.00432901
1.44946e-09
0.00432901
5.1383e-10
0.00432901
1.09898e-09
0.00432901
1.8879e-10
0.00432901
4.35348e-10
0.00432901
-4.37579e-10
0.00432901
2.65139e-10
0.00432901
-5.59302e-10
0.004329
5.06132e-10
0.004329
-4.17008e-10
0.004329
3.47951e-10
0.004329
-3.97713e-10
0.004329
4.45572e-10
0.004329
-1.91436e-10
0.004329
7.22435e-10
0.004329
-1.34282e-10
0.004329
7.29281e-10
0.004329
-2.45667e-10
0.004329
5.66247e-10
0.004329
-3.07843e-10
0.004329
6.3391e-10
0.004329
-1.04045e-11
0.004329
7.86295e-10
0.004329
1.52785e-10
0.004329
4.89183e-10
0.004329
-4.6901e-10
0.004329
2.72489e-10
0.004329
-1.69792e-10
0.004329
5.29782e-10
0.004329
3.53622e-10
0.004329
8.10811e-10
0.004329
4.21949e-10
0.004329
1.13331e-09
0.004329
1.12271e-09
0.004329
2.56609e-09
0.004329
3.10633e-09
0.00432899
5.11911e-09
0.00432899
6.24419e-09
0.00432899
9.3131e-09
0.00432898
1.26579e-08
0.00432897
1.81797e-08
0.00432895
2.56468e-08
0.00432893
3.63901e-08
0.0043289
4.96104e-08
0.00432886
6.67716e-08
0.00432881
8.62691e-08
0.00432874
9.99386e-08
0.00432867
1.04832e-07
0.00432858
1.11268e-07
0.00432827
4.16769e-07
0.00432694
2.02761e-06
0.00432236
7.18188e-06
7.90969e-06
0.00507208
0.00252587
0.00495552
0.000521931
0.00492286
7.3808e-05
0.00492062
8.47533e-06
0.00492247
-7.60116e-06
0.00492134
3.9132e-06
0.00491969
4.36717e-06
0.00491763
5.82834e-06
0.00491588
4.76632e-06
0.00491434
4.20689e-06
0.00491308
3.42384e-06
0.00491203
2.88527e-06
0.00491114
2.3967e-06
0.0049104
2.02168e-06
0.00490977
1.70583e-06
0.00490923
1.45e-06
0.00490877
1.23522e-06
0.00490838
1.05824e-06
0.00490804
9.05432e-07
0.00490775
7.74907e-07
0.0049075
6.60743e-07
0.00490728
5.62613e-07
0.0049071
4.76143e-07
0.00490695
4.03207e-07
0.00490682
3.38039e-07
0.00490671
2.83168e-07
0.00490661
2.35082e-07
0.00490654
1.95329e-07
0.00490647
1.60216e-07
0.00490642
1.31502e-07
0.00490638
1.06379e-07
0.00490634
8.64581e-08
0.00490632
6.9101e-08
0.00490629
5.71055e-08
0.00490628
4.43838e-08
0.00490626
3.63263e-08
0.00490625
2.72205e-08
0.00490624
2.2564e-08
0.00490623
1.73586e-08
0.00490623
1.44753e-08
0.00490622
1.04973e-08
0.00490622
9.08775e-09
0.00490622
6.14163e-09
0.00490621
6.29745e-09
0.00490621
3.7339e-09
0.00490621
3.88958e-09
0.00490621
1.87053e-09
0.00490621
2.36308e-09
0.00490621
9.52846e-10
0.00490621
1.4899e-09
0.00490621
2.4786e-10
0.00490621
6.99056e-10
0.00490621
-6.66255e-10
0.00490621
3.69235e-10
0.00490621
-8.40793e-10
0.0049062
5.47289e-10
0.00490621
-5.54631e-10
0.0049062
4.50239e-10
0.0049062
-4.47753e-10
0.0049062
7.64158e-10
0.0049062
-1.82972e-10
0.0049062
1.05096e-09
0.0049062
-2.02986e-10
0.0049062
1.04791e-09
0.0049062
-2.56539e-10
0.0049062
1.01203e-09
0.0049062
-1.73521e-10
0.0049062
9.97048e-10
0.0049062
6.70909e-11
0.0049062
1.0768e-09
0.0049062
1.53032e-10
0.0049062
7.67699e-10
0.0049062
-4.30245e-10
0.0049062
4.24687e-10
0.0049062
-1.89759e-10
0.0049062
6.8875e-10
0.0049062
3.47505e-10
0.0049062
1.21492e-09
0.0049062
8.47606e-10
0.0049062
1.90801e-09
0.0049062
1.97936e-09
0.0049062
4.09047e-09
0.0049062
5.08628e-09
0.00490619
8.13938e-09
0.00490619
1.03863e-08
0.00490618
1.52636e-08
0.00490618
2.07044e-08
0.00490617
2.95953e-08
0.00490615
4.13017e-08
0.00490613
5.83449e-08
0.0049061
7.99489e-08
0.00490606
1.07742e-07
0.004906
1.41443e-07
0.00490593
1.69859e-07
0.00490583
2.00522e-07
0.00490569
2.56422e-07
0.00490522
8.90401e-07
0.0049036
3.64698e-06
0.00489775
1.30244e-05
2.27384e-05
0.00520996
0.00231591
0.00513965
0.000592235
0.00511259
0.00010087
0.00511148
9.58998e-06
0.00511258
-8.70605e-06
0.00511177
4.72638e-06
0.00511032
5.81582e-06
0.00510859
7.55715e-06
0.00510708
6.277e-06
0.00510577
5.5202e-06
0.00510468
4.5124e-06
0.00510376
3.79967e-06
0.005103
3.161e-06
0.00510235
2.66809e-06
0.0051018
2.25475e-06
0.00510133
1.91932e-06
0.00510093
1.63809e-06
0.00510058
1.40602e-06
0.00510028
1.20576e-06
0.00510002
1.03447e-06
0.0050998
8.84591e-07
0.00509961
7.5554e-07
0.00509944
6.41401e-07
0.0050993
5.44526e-07
0.00509918
4.57912e-07
0.00509908
3.84645e-07
0.005099
3.20134e-07
0.00509892
2.66756e-07
0.00509886
2.19569e-07
0.00509882
1.80815e-07
0.00509878
1.47069e-07
0.00509874
1.19908e-07
0.00509871
9.59112e-08
0.00509869
7.90552e-08
0.00509868
6.18976e-08
0.00509866
5.08468e-08
0.00509865
3.86984e-08
0.00509864
3.20174e-08
0.00509863
2.45388e-08
0.00509863
2.03111e-08
0.00509862
1.48993e-08
0.00509862
1.2991e-08
0.00509862
9.07957e-09
0.00509861
8.91411e-09
0.00509861
5.54834e-09
0.00509861
5.51513e-09
0.00509861
2.82412e-09
0.00509861
3.25828e-09
0.00509861
1.36173e-09
0.00509861
1.82898e-09
0.00509861
3.13801e-10
0.00509861
1.05694e-09
0.00509861
-7.43661e-10
0.00509861
5.14495e-10
0.00509861
-1.04894e-09
0.00509861
6.25664e-10
0.00509861
-6.36184e-10
0.0050986
5.99851e-10
0.0050986
-4.47065e-10
0.0050986
1.07102e-09
0.0050986
-2.08585e-10
0.0050986
1.23206e-09
0.0050986
-3.53642e-10
0.0050986
1.244e-09
0.0050986
-3.00107e-10
0.0050986
1.38519e-09
0.0050986
5.36552e-12
0.0050986
1.37337e-09
0.0050986
1.04816e-10
0.0050986
1.25899e-09
0.0050986
9.28739e-11
0.0050986
1.01487e-09
0.0050986
-3.61907e-10
0.0050986
5.95174e-10
0.0050986
-2.4335e-10
0.0050986
7.68028e-10
0.0050986
2.81349e-10
0.0050986
1.52294e-09
0.0050986
1.25161e-09
0.0050986
2.67301e-09
0.0050986
2.7996e-09
0.0050986
5.45133e-09
0.0050986
6.88731e-09
0.0050986
1.09087e-08
0.00509859
1.42077e-08
0.00509859
2.07624e-08
0.00509858
2.80826e-08
0.00509857
3.9918e-08
0.00509855
5.53793e-08
0.00509854
7.79809e-08
0.00509851
1.07234e-07
0.00509847
1.45109e-07
0.00509842
1.9359e-07
0.00509835
2.40725e-07
0.00509824
3.11321e-07
0.00509805
4.40872e-07
0.00509748
1.45752e-06
0.00509583
5.29964e-06
0.00508957
1.9288e-05
3.78139e-05
0.00523333
0.00208258
0.00519424
0.000631322
0.00517361
0.000121508
0.0051733
9.89536e-06
0.00517394
-9.345e-06
0.00517343
5.23317e-06
0.00517226
6.98395e-06
0.00517091
8.9145e-06
0.0051697
7.48728e-06
0.00516864
6.57196e-06
0.00516777
5.38978e-06
0.00516703
4.53812e-06
0.00516641
3.78017e-06
0.00516588
3.19139e-06
0.00516544
2.70092e-06
0.00516505
2.30344e-06
0.00516472
1.96945e-06
0.00516444
1.69353e-06
0.00516419
1.45547e-06
0.00516397
1.25164e-06
0.00516378
1.07307e-06
0.00516362
9.19054e-07
0.00516348
7.82446e-07
0.00516336
6.65822e-07
0.00516325
5.61561e-07
0.00516316
4.72892e-07
0.00516309
3.94696e-07
0.00516303
3.29718e-07
0.00516297
2.72148e-07
0.00516293
2.24909e-07
0.00516289
1.83574e-07
0.00516286
1.50083e-07
0.00516284
1.20212e-07
0.00516282
9.89587e-08
0.0051628
7.80341e-08
0.00516279
6.42282e-08
0.00516278
4.94386e-08
0.00516277
4.07616e-08
0.00516276
3.12499e-08
0.00516276
2.58405e-08
0.00516276
1.91565e-08
0.00516275
1.67364e-08
0.00516275
1.18862e-08
0.00516275
1.1322e-08
0.00516275
7.34793e-09
0.00516274
7.10426e-09
0.00516274
3.91918e-09
0.00516274
4.17262e-09
0.00516274
1.79668e-09
0.00516274
2.19132e-09
0.00516274
4.08871e-10
0.00516274
1.41737e-09
0.00516274
-7.31439e-10
0.00516274
6.85567e-10
0.00516274
-1.11464e-09
0.00516274
7.01101e-10
0.00516274
-6.6588e-10
0.00516274
7.74703e-10
0.00516274
-4.05919e-10
0.00516274
1.33013e-09
0.00516274
-2.39822e-10
0.00516274
1.34396e-09
0.00516274
-5.40642e-10
0.00516274
1.31923e-09
0.00516274
-3.35654e-10
0.00516274
1.68074e-09
0.00516274
1.93855e-10
0.00516274
1.70246e-09
0.00516274
1.77034e-10
0.00516274
1.41483e-09
0.00516274
2.99575e-11
0.00516274
1.14462e-09
0.00516274
-3.56485e-10
0.00516274
6.83085e-10
0.00516274
-3.6415e-10
0.00516274
7.61578e-10
0.00516274
2.19535e-10
0.00516274
1.78153e-09
0.00516274
1.6244e-09
0.00516274
3.37965e-09
0.00516274
3.58448e-09
0.00516273
6.66281e-09
0.00516273
8.47384e-09
0.00516273
1.32987e-08
0.00516273
1.74974e-08
0.00516272
2.54839e-08
0.00516272
3.43863e-08
0.00516271
4.8649e-08
0.0051627
6.72361e-08
0.00516268
9.44857e-08
0.00516266
1.30342e-07
0.00516262
1.77319e-07
0.00516258
2.40448e-07
0.00516251
3.09027e-07
0.00516239
4.29082e-07
0.00516218
6.47526e-07
0.0051616
2.04117e-06
0.00516003
6.86588e-06
0.00515415
2.51715e-05
5.09448e-05
0.00522262
0.00185995
0.0052066
0.000647345
0.0051919
0.000136214
0.00519213
9.6576e-06
0.00519249
-9.70259e-06
0.00519225
5.47172e-06
0.00519138
7.85425e-06
0.0051904
9.90044e-06
0.00518949
8.39169e-06
0.00518871
7.35762e-06
0.00518805
6.05146e-06
0.00518749
5.09651e-06
0.00518702
4.25065e-06
0.00518662
3.59061e-06
0.00518627
3.04302e-06
0.00518598
2.59953e-06
0.00518572
2.22649e-06
0.0051855
1.91799e-06
0.0051853
1.65169e-06
0.00518513
1.42347e-06
0.00518498
1.22325e-06
0.00518485
1.05026e-06
0.00518473
8.96469e-07
0.00518463
7.64467e-07
0.00518455
6.46521e-07
0.00518448
5.45709e-07
0.00518442
4.5645e-07
0.00518436
3.81986e-07
0.00518432
3.1622e-07
0.00518428
2.62134e-07
0.00518425
2.14574e-07
0.00518423
1.75905e-07
0.00518421
1.41162e-07
0.00518419
1.161e-07
0.00518417
9.20926e-08
0.00518416
7.5909e-08
0.00518415
5.89137e-08
0.00518415
4.84919e-08
0.00518414
3.72569e-08
0.00518414
3.08218e-08
0.00518413
2.30205e-08
0.00518413
2.01234e-08
0.00518413
1.44421e-08
0.00518412
1.33872e-08
0.00518412
8.97308e-09
0.00518412
8.57936e-09
0.00518412
5.05231e-09
0.00518412
5.07354e-09
0.00518412
2.21738e-09
0.00518412
2.52901e-09
0.00518412
4.78685e-10
0.00518412
1.71771e-09
0.00518412
-6.8306e-10
0.00518412
8.19377e-10
0.00518412
-1.14025e-09
0.00518412
7.23286e-10
0.00518412
-7.22028e-10
0.00518412
8.89983e-10
0.00518412
-3.9905e-10
0.00518412
1.51111e-09
0.00518412
-2.76976e-10
0.00518412
1.42735e-09
0.00518412
-7.07284e-10
0.00518412
1.3189e-09
0.00518412
-3.85644e-10
0.00518412
1.89742e-09
0.00518412
3.99309e-10
0.00518412
2.04314e-09
0.00518412
3.31492e-10
0.00518412
1.58082e-09
0.00518412
-4.08375e-11
0.00518412
1.15797e-09
0.00518412
-4.29677e-10
0.00518412
7.01318e-10
0.00518412
-5.05848e-10
0.00518412
6.98837e-10
0.00518412
1.34261e-10
0.00518412
1.94623e-09
0.00518412
1.90359e-09
0.00518411
3.98176e-09
0.00518411
4.30511e-09
0.00518411
7.71744e-09
0.00518411
9.82854e-09
0.00518411
1.52754e-08
0.00518411
2.01735e-08
0.0051841
2.93066e-08
0.0051841
3.9473e-08
0.00518409
5.56328e-08
0.00518408
7.66741e-08
0.00518407
1.07604e-07
0.00518405
1.48902e-07
0.00518402
2.03795e-07
0.00518398
2.80897e-07
0.00518392
3.7147e-07
0.0051838
5.45868e-07
0.00518359
8.57618e-07
0.00518302
2.61116e-06
0.00518164
8.24443e-06
0.0051766
3.02161e-05
6.15774e-05
0.00520397
0.00165598
0.00520552
0.000645797
0.00519614
0.000145594
0.00519673
9.06796e-06
0.0051969
-9.87594e-06
0.00519689
5.48108e-06
0.00519631
8.43431e-06
0.00519567
1.05381e-05
0.00519506
9.00235e-06
0.00519453
7.88868e-06
0.00519408
6.50511e-06
0.00519369
5.48119e-06
0.00519337
4.5774e-06
0.00519309
3.86965e-06
0.00519284
3.28393e-06
0.00519263
2.80959e-06
0.00519245
2.41034e-06
0.00519229
2.07993e-06
0.00519215
1.79448e-06
0.00519202
1.5496e-06
0.00519191
1.33445e-06
0.00519181
1.14821e-06
0.00519173
9.82322e-07
0.00519165
8.39257e-07
0.00519159
7.11495e-07
0.00519153
6.01848e-07
0.00519148
5.04444e-07
0.00519144
4.22872e-07
0.00519141
3.50799e-07
0.00519138
2.91532e-07
0.00519135
2.39214e-07
0.00519133
1.96631e-07
0.00519132
1.58169e-07
0.0051913
1.30046e-07
0.00519129
1.036e-07
0.00519128
8.54625e-08
0.00519127
6.67457e-08
0.00519127
5.49521e-08
0.00519126
4.23432e-08
0.00519126
3.50212e-08
0.00519126
2.62723e-08
0.00519125
2.30182e-08
0.00519125
1.66694e-08
0.00519125
1.50668e-08
0.00519125
1.03236e-08
0.00519125
9.8243e-09
0.00519125
6.10203e-09
0.00519124
5.93237e-09
0.00519124
2.66504e-09
0.00519124
2.85983e-09
0.00519124
5.08896e-10
0.00519124
1.913e-09
0.00519124
-6.29942e-10
0.00519124
9.20537e-10
0.00519124
-1.14133e-09
0.00519124
6.85565e-10
0.00519124
-8.26746e-10
0.00519124
9.23939e-10
0.00519124
-4.34085e-10
0.00519124
1.62214e-09
0.00519124
-3.03039e-10
0.00519124
1.51567e-09
0.00519124
-8.0608e-10
0.00519124
1.30606e-09
0.00519124
-4.17221e-10
0.00519124
2.04212e-09
0.00519124
5.87398e-10
0.00519124
2.36676e-09
0.00519124
5.69893e-10
0.00519124
1.79294e-09
0.00519124
-8.28579e-11
0.00519124
1.08179e-09
0.00519124
-5.81811e-10
0.00519124
6.35385e-10
0.00519124
-6.59303e-10
0.00519124
6.08379e-10
0.00519124
4.45235e-11
0.00519124
2.01954e-09
0.00519124
2.06202e-09
0.00519124
4.44101e-09
0.00519124
4.93293e-09
0.00519124
8.60937e-09
0.00519124
1.0953e-08
0.00519124
1.68348e-08
0.00519124
2.21969e-08
0.00519123
3.21261e-08
0.00519123
4.32857e-08
0.00519122
6.08159e-08
0.00519122
8.36656e-08
0.00519121
1.17317e-07
0.00519119
1.62845e-07
0.00519117
2.24294e-07
0.00519114
3.14055e-07
0.00519108
4.26301e-07
0.00519097
6.5503e-07
0.00519077
1.05748e-06
0.00519026
3.1284e-06
0.00518912
9.37705e-06
0.00518513
3.42118e-05
6.96142e-05
0.00518538
0.0014706
0.00520057
0.000630614
0.0051959
0.000150262
0.0051967
8.2716e-06
0.00519673
-9.90888e-06
0.00519691
5.30488e-06
0.0051966
8.74275e-06
0.00519628
1.08572e-05
0.00519594
9.33875e-06
0.00519565
8.18213e-06
0.00519539
6.76303e-06
0.00519517
5.7021e-06
0.00519498
4.76809e-06
0.00519481
4.03441e-06
0.00519467
3.42818e-06
0.00519454
2.93719e-06
0.00519443
2.5236e-06
0.00519433
2.18117e-06
0.00519424
1.88508e-06
0.00519415
1.63076e-06
0.00519408
1.40701e-06
0.00519402
1.21292e-06
0.00519396
1.03971e-06
0.00519391
8.89763e-07
0.00519387
7.55884e-07
0.00519383
6.40711e-07
0.00519379
5.38061e-07
0.00519377
4.51747e-07
0.00519374
3.75316e-07
0.00519372
3.12508e-07
0.0051937
2.56959e-07
0.00519369
2.11748e-07
0.00519367
1.7077e-07
0.00519366
1.40447e-07
0.00519366
1.1221e-07
0.00519365
9.26346e-08
0.00519364
7.26628e-08
0.00519364
5.99179e-08
0.00519363
4.6234e-08
0.00519363
3.82719e-08
0.00519363
2.88587e-08
0.00519363
2.5325e-08
0.00519363
1.84793e-08
0.00519362
1.63289e-08
0.00519362
1.13448e-08
0.00519362
1.08043e-08
0.00519362
6.99825e-09
0.00519362
6.69842e-09
0.00519362
3.11877e-09
0.00519362
3.18418e-09
0.00519362
5.25066e-10
0.00519362
2.01855e-09
0.00519362
-5.84695e-10
0.00519362
9.77293e-10
0.00519362
-1.14165e-09
0.00519362
6.1406e-10
0.00519362
-9.56662e-10
0.00519362
8.86143e-10
0.00519362
-5.09974e-10
0.00519362
1.66749e-09
0.00519362
-3.16277e-10
0.00519362
1.62333e-09
0.00519362
-7.97625e-10
0.00519362
1.34372e-09
0.00519362
-4.06378e-10
0.00519362
2.13266e-09
0.00519362
7.3219e-10
0.00519362
2.6509e-09
0.00519362
8.60357e-10
0.00519362
2.04945e-09
0.00519362
-7.69883e-11
0.00519362
9.67005e-10
0.00519362
-7.91557e-10
0.00519362
4.81699e-10
0.00519362
-8.26302e-10
0.00519362
5.07935e-10
0.00519362
-3.57414e-11
0.00519362
2.02167e-09
0.00519362
2.09856e-09
0.00519362
4.72998e-09
0.00519362
5.42448e-09
0.00519362
9.31096e-09
0.00519362
1.18357e-08
0.00519361
1.7983e-08
0.00519361
2.36144e-08
0.00519361
3.396e-08
0.00519361
4.57296e-08
0.00519361
6.42263e-08
0.0051936
8.82615e-08
0.00519359
1.23698e-07
0.00519359
1.72211e-07
0.00519357
2.387e-07
0.00519355
3.39255e-07
0.0051935
4.71371e-07
0.0051934
7.50323e-07
0.00519323
1.23402e-06
0.00519279
3.56168e-06
0.00519194
1.0231e-05
0.00518908
3.70714e-05
7.50824e-05
0.00516894
0.00130166
0.0051949
0.000604656
0.00519437
0.000150791
0.00519527
7.37763e-06
0.00519517
-9.8142e-06
0.00519549
4.98803e-06
0.00519543
8.80329e-06
0.0051954
1.08888e-05
0.00519531
9.42307e-06
0.00519524
8.25671e-06
0.00519516
6.83934e-06
0.00519509
5.77051e-06
0.00519503
4.83149e-06
0.00519497
4.09184e-06
0.00519492
3.48121e-06
0.00519487
2.98662e-06
0.00519482
2.56963e-06
0.00519478
2.22427e-06
0.00519474
1.92538e-06
0.0051947
1.66831e-06
0.00519467
1.44186e-06
0.00519464
1.24502e-06
0.00519461
1.06897e-06
0.00519458
9.16138e-07
0.00519456
7.79637e-07
0.00519454
6.62106e-07
0.00519452
5.57047e-07
0.0051945
4.68299e-07
0.00519449
3.89523e-07
0.00519448
3.24789e-07
0.00519446
2.6751e-07
0.00519446
2.20969e-07
0.00519445
1.7867e-07
0.00519444
1.47082e-07
0.00519444
1.17681e-07
0.00519443
9.72274e-08
0.00519443
7.6488e-08
0.00519442
6.32039e-08
0.00519442
4.88646e-08
0.00519442
4.05276e-08
0.00519442
3.06418e-08
0.00519442
2.69281e-08
0.00519442
1.98006e-08
0.00519441
1.72114e-08
0.00519441
1.20455e-08
0.00519441
1.14991e-08
0.00519441
7.66831e-09
0.00519441
7.30659e-09
0.00519441
3.54311e-09
0.00519441
3.50792e-09
0.00519441
5.49885e-10
0.00519441
2.05713e-09
0.00519441
-5.62144e-10
0.00519441
1.00992e-09
0.00519441
-1.13589e-09
0.00519441
5.54488e-10
0.00519441
-1.08584e-09
0.00519441
7.98738e-10
0.00519441
-6.12915e-10
0.00519441
1.67387e-09
0.00519441
-3.17687e-10
0.00519441
1.74798e-09
0.00519441
-6.91465e-10
0.00519441
1.46616e-09
0.00519441
-3.28184e-10
0.00519441
2.20971e-09
0.00519441
8.30165e-10
0.00519441
2.87312e-09
0.00519441
1.14526e-09
0.00519441
2.31712e-09
0.00519441
-2.62729e-11
0.00519441
8.54776e-10
0.00519441
-1.03502e-09
0.00519441
2.51311e-10
0.00519441
-1.01597e-09
0.00519441
4.08922e-10
0.00519441
-1.03575e-10
0.00519441
1.97982e-09
0.00519441
2.02892e-09
0.00519441
4.84429e-09
0.00519441
5.74531e-09
0.00519441
9.79137e-09
0.00519441
1.24492e-08
0.00519441
1.87219e-08
0.00519441
2.43641e-08
0.00519441
3.49008e-08
0.00519441
4.69278e-08
0.0051944
6.59053e-08
0.0051944
9.05306e-08
0.0051944
1.26842e-07
0.00519439
1.77071e-07
0.00519439
2.46952e-07
0.00519437
3.55884e-07
0.00519434
5.04691e-07
0.00519426
8.26251e-07
0.00519412
1.37632e-06
0.00519379
3.88897e-06
0.00519323
1.07876e-05
0.00519153
3.87722e-05
7.8077e-05
0.00515491
0.00114674
0.0051895
0.000570071
0.00519261
0.000147685
0.00519352
6.462e-06
0.0051933
-9.58899e-06
0.00519371
4.57253e-06
0.00519387
8.64161e-06
0.0051941
1.0663e-05
0.00519424
9.27806e-06
0.00519437
8.13164e-06
0.00519446
6.74878e-06
0.00519453
5.69822e-06
0.00519459
4.77689e-06
0.00519463
4.04942e-06
0.00519466
3.44905e-06
0.00519469
2.96269e-06
0.0051947
2.55222e-06
0.00519472
2.21223e-06
0.00519472
1.9177e-06
0.00519473
1.66406e-06
0.00519473
1.44034e-06
0.00519473
1.24559e-06
0.00519473
1.07088e-06
0.00519473
9.18964e-07
0.00519472
7.83102e-07
0.00519472
6.6618e-07
0.00519471
5.61421e-07
0.00519471
4.72555e-07
0.00519471
3.93433e-07
0.0051947
3.28383e-07
0.0051947
2.70798e-07
0.00519469
2.24204e-07
0.00519469
1.81718e-07
0.00519469
1.4981e-07
0.00519469
1.1989e-07
0.00519469
9.91471e-08
0.00519468
7.81532e-08
0.00519468
6.47241e-08
0.00519468
5.01387e-08
0.00519468
4.1698e-08
0.00519468
3.15578e-08
0.00519468
2.77987e-08
0.00519468
2.05855e-08
0.00519468
1.77607e-08
0.00519468
1.2447e-08
0.00519468
1.19242e-08
0.00519467
8.04651e-09
0.00519467
7.70356e-09
0.00519467
3.87796e-09
0.00519467
3.82067e-09
0.00519467
5.98577e-10
0.00519467
2.06088e-09
0.00519467
-5.67993e-10
0.00519467
1.02973e-09
0.00519467
-1.12539e-09
0.00519467
5.28611e-10
0.00519467
-1.1877e-09
0.00519467
6.93964e-10
0.00519467
-7.2096e-10
0.00519467
1.66374e-09
0.00519467
-3.2036e-10
0.00519467
1.86548e-09
0.00519467
-5.27721e-10
0.00519467
1.67959e-09
0.00519467
-1.64615e-10
0.00519467
2.32513e-09
0.00519467
8.97437e-10
0.00519467
3.01618e-09
0.00519467
1.3617e-09
0.00519467
2.5472e-09
0.00519467
4.83337e-11
0.00519467
7.75151e-10
0.00519467
-1.28394e-09
0.00519467
-3.10942e-11
0.00519467
-1.24184e-09
0.00519467
3.06836e-10
0.00519467
-1.7038e-10
0.00519467
1.92071e-09
0.00519467
1.88985e-09
0.00519467
4.80512e-09
0.00519467
5.84881e-09
0.00519467
1.00292e-08
0.00519467
1.2749e-08
0.00519467
1.90404e-08
0.00519467
2.45416e-08
0.00519467
3.49889e-08
0.00519467
4.69438e-08
0.00519467
6.59381e-08
0.00519467
9.0554e-08
0.00519467
1.26862e-07
0.00519467
1.77538e-07
0.00519467
2.4906e-07
0.00519466
3.63468e-07
0.00519464
5.24668e-07
0.00519459
8.78427e-07
0.00519449
1.47617e-06
0.00519428
4.0956e-06
0.00519403
1.10379e-05
0.00519347
3.93324e-05
7.87389e-05
0.00514309
0.00100365
0.00518464
0.000528526
0.00519093
0.000141393
0.00519182
5.57271e-06
0.00519145
-9.22468e-06
0.00519193
4.09516e-06
0.00519229
8.28378e-06
0.00519274
1.02088e-05
0.0051931
8.92641e-06
0.0051934
7.82614e-06
0.00519364
6.5064e-06
0.00519385
5.49739e-06
0.00519401
4.61396e-06
0.00519414
3.915e-06
0.00519425
3.33809e-06
0.00519435
2.87061e-06
0.00519442
2.47563e-06
0.00519449
2.14853e-06
0.00519454
1.86481e-06
0.00519458
1.62027e-06
0.00519462
1.40424e-06
0.00519465
1.21607e-06
0.00519468
1.04666e-06
0.0051947
8.992e-07
0.00519471
7.67034e-07
0.00519472
6.53438e-07
0.00519473
5.51537e-07
0.00519474
4.64809e-07
0.00519475
3.8729e-07
0.00519475
3.23513e-07
0.00519476
2.66952e-07
0.00519476
2.21502e-07
0.00519476
1.79896e-07
0.00519476
1.48594e-07
0.00519476
1.18843e-07
0.00519476
9.83971e-08
0.00519476
7.76609e-08
0.00519476
6.4457e-08
0.00519476
4.99934e-08
0.00519476
4.17317e-08
0.00519476
3.15706e-08
0.00519476
2.79106e-08
0.00519476
2.08146e-08
0.00519476
1.7981e-08
0.00519476
1.25658e-08
0.00519476
1.20584e-08
0.00519476
8.13614e-09
0.00519476
7.84808e-09
0.00519476
4.06366e-09
0.00519476
4.10034e-09
0.00519476
6.62529e-10
0.00519476
2.06189e-09
0.00519476
-6.1402e-10
0.00519476
1.03611e-09
0.00519476
-1.1313e-09
0.00519476
5.41626e-10
0.00519476
-1.25221e-09
0.00519476
6.092e-10
0.00519476
-8.27058e-10
0.00519476
1.65486e-09
0.00519476
-3.45399e-10
0.00519476
1.95388e-09
0.00519476
-3.4197e-10
0.00519476
1.95516e-09
0.00519476
8.75161e-11
0.00519476
2.50475e-09
0.00519476
9.52476e-10
0.00519476
3.08567e-09
0.00519476
1.46634e-09
0.00519476
2.71087e-09
0.00519476
1.21643e-10
0.00519476
7.34523e-10
0.00519476
-1.50261e-09
0.00519476
-3.50455e-10
0.00519476
-1.50091e-09
0.00519476
1.79761e-10
0.00519476
-2.57102e-10
0.00519476
1.86368e-09
0.00519476
1.72022e-09
0.00519476
4.64404e-09
0.00519476
5.75334e-09
0.00519476
9.99332e-09
0.00519476
1.27079e-08
0.00519476
1.8932e-08
0.00519476
2.4174e-08
0.00519476
3.42852e-08
0.00519477
4.58465e-08
0.00519477
6.44173e-08
0.00519477
8.84283e-08
0.00519477
1.23895e-07
0.00519478
1.73766e-07
0.00519478
2.45108e-07
0.00519478
3.61731e-07
0.00519478
5.30177e-07
0.00519475
9.03699e-07
0.0051947
1.52795e-06
0.00519462
4.17313e-06
0.00519468
1.0982e-05
0.00519521
3.87992e-05
7.72363e-05
0.00513319
0.000870462
0.00518037
0.000481351
0.00518944
0.000132322
0.00519027
4.73663e-06
0.00518976
-8.71316e-06
0.00519027
3.5864e-06
0.0051908
7.75527e-06
0.00519146
9.55385e-06
0.00519199
8.39042e-06
0.00519246
7.35923e-06
0.00519284
6.12738e-06
0.00519316
5.18043e-06
0.00519342
4.35271e-06
0.00519364
3.69674e-06
0.00519382
3.15509e-06
0.00519397
2.71601e-06
0.00519411
2.34452e-06
0.00519422
2.03706e-06
0.00519431
1.76997e-06
0.00519439
1.53959e-06
0.00519446
1.33577e-06
0.00519452
1.15829e-06
0.00519457
9.97859e-07
0.00519461
8.58133e-07
0.00519464
7.32505e-07
0.00519467
6.24714e-07
0.0051947
5.28012e-07
0.00519472
4.45579e-07
0.00519473
3.71535e-07
0.00519474
3.10561e-07
0.00519475
2.56276e-07
0.00519476
2.13052e-07
0.00519477
1.73319e-07
0.00519477
1.43518e-07
0.00519478
1.14649e-07
0.00519478
9.50592e-08
0.00519478
7.50657e-08
0.00519479
6.24316e-08
0.00519479
4.84365e-08
0.00519479
4.06583e-08
0.00519479
3.06946e-08
0.00519479
2.72544e-08
0.00519479
2.04603e-08
0.00519479
1.78395e-08
0.00519479
1.24025e-08
0.00519479
1.19127e-08
0.00519479
7.95635e-09
0.00519479
7.73446e-09
0.00519479
4.07394e-09
0.00519479
4.3042e-09
0.00519479
7.42775e-10
0.00519479
2.04547e-09
0.00519479
-7.04365e-10
0.00519479
9.98508e-10
0.00519479
-1.16882e-09
0.00519479
5.59216e-10
0.00519479
-1.27945e-09
0.00519479
5.45449e-10
0.00519479
-9.29271e-10
0.00519479
1.63264e-09
0.00519479
-3.90242e-10
0.00519479
2.00053e-09
0.00519479
-1.69376e-10
0.00519479
2.24831e-09
0.00519479
3.90608e-10
0.00519479
2.73798e-09
0.00519479
1.02266e-09
0.00519479
3.09624e-09
0.00519479
1.47565e-09
0.00519479
2.78811e-09
0.00519479
1.78811e-10
0.00519479
7.26445e-10
0.00519479
-1.68316e-09
0.00519479
-6.76596e-10
0.00519479
-1.79938e-09
0.00519479
1.17129e-11
0.00519479
-3.76962e-10
0.00519479
1.79616e-09
0.00519479
1.54723e-09
0.00519479
4.39405e-09
0.00519479
5.48016e-09
0.00519479
9.6941e-09
0.00519479
1.23286e-08
0.00519479
1.84032e-08
0.0051948
2.32838e-08
0.0051948
3.2853e-08
0.0051948
4.37185e-08
0.0051948
6.14408e-08
0.00519481
8.42693e-08
0.00519481
1.18099e-07
0.00519482
1.65954e-07
0.00519483
2.35259e-07
0.00519484
3.50619e-07
0.00519485
5.20597e-07
0.00519485
9.00199e-07
0.00519485
1.52854e-06
0.00519491
4.1188e-06
0.00519526
1.06276e-05
0.00519682
3.72412e-05
7.37558e-05
0.00512494
0.000745524
0.00517667
0.00042962
0.00518815
0.000120841
0.00518892
3.96559e-06
0.00518826
-8.05018e-06
0.00518878
3.07007e-06
0.00518945
7.08048e-06
0.00519028
8.72444e-06
0.00519098
7.69197e-06
0.00519159
6.74969e-06
0.00519209
5.62693e-06
0.00519251
4.7599e-06
0.00519286
4.00337e-06
0.00519315
3.40307e-06
0.0051934
2.9071e-06
0.00519361
2.50486e-06
0.00519379
2.16397e-06
0.00519395
1.88211e-06
0.00519408
1.63679e-06
0.0051942
1.42507e-06
0.0051943
1.2375e-06
0.00519438
1.07441e-06
0.00519445
9.26329e-07
0.00519451
7.97351e-07
0.00519456
6.80885e-07
0.00519461
5.81147e-07
0.00519464
4.91732e-07
0.00519467
4.15575e-07
0.0051947
3.46774e-07
0.00519472
2.90041e-07
0.00519474
2.39223e-07
0.00519475
1.99192e-07
0.00519476
1.62231e-07
0.00519477
1.34768e-07
0.00519478
1.0749e-07
0.00519478
8.9271e-08
0.00519479
7.04745e-08
0.00519479
5.87491e-08
0.00519479
4.55567e-08
0.0051948
3.85261e-08
0.0051948
2.89896e-08
0.0051948
2.58554e-08
0.0051948
1.94988e-08
0.0051948
1.7288e-08
0.0051948
1.19511e-08
0.0051948
1.15077e-08
0.0051948
7.54419e-09
0.0051948
7.38329e-09
0.0051948
3.90552e-09
0.0051948
4.39279e-09
0.0051948
8.13581e-10
0.0051948
1.99418e-09
0.0051948
-8.43873e-10
0.0051948
9.00393e-10
0.0051948
-1.25208e-09
0.0051948
5.42568e-10
0.0051948
-1.30291e-09
0.0051948
4.83082e-10
0.0051948
-1.03717e-09
0.0051948
1.5912e-09
0.0051948
-4.40567e-10
0.0051948
2.00774e-09
0.0051948
-3.45267e-11
0.0051948
2.50433e-09
0.0051948
6.91349e-10
0.0051948
2.99208e-09
0.0051948
1.13065e-09
0.0051948
3.08618e-09
0.0051948
1.42783e-09
0.0051948
2.78424e-09
0.0051948
2.05765e-10
0.0051948
7.25638e-10
0.0051948
-1.81776e-09
0.0051948
-9.8617e-10
0.0051948
-2.121e-09
0.0051948
-2.08939e-10
0.0051948
-5.49707e-10
0.0051948
1.68926e-09
0.0051948
1.37135e-09
0.0051948
4.0825e-09
0.0051948
5.06472e-09
0.0051948
9.16484e-09
0.0051948
1.16376e-08
0.00519481