/*--------------------------------*- C++ -*----------------------------------*\
| =========                 |                                                 |
| \\      /  F ield         | OpenFOAM: The Open Source CFD Toolbox           |
|  \\    /   O peration     | Version:  v1906                                 |
|   \\  /    A nd           | Web:      www.OpenFOAM.com                      |
|    \\/     M anipulation  |                                                 |
\*---------------------------------------------------------------------------*/
FoamFile
{
    version     2.0;
    format      ascii;
    class       surfaceScalarField;
    location    "1.5";
    object      phiB;
}
// * * * * * * * * * * * * * * * * * * * * * * * * * * * * * * * * * * * * * //

dimensions      [1 2 -2 0 0 -1 0];
oriented        oriented;


internalField   nonuniform List<scalar> 
7860
(
0.00211435
0.799218
0.00249186
0.799622
0.00260097
0.799891
0.00261657
0.799984
0.00259905
0.800018
0.00256928
0.80003
0.00254324
0.800026
0.00252079
0.800022
0.00250461
0.800016
0.00249246
0.800012
0.00248426
0.800008
0.00247847
0.800006
0.00247469
0.800004
0.00247212
0.800003
0.00247048
0.800002
0.00246939
0.800001
0.00246871
0.800001
0.00246826
0.8
0.00246799
0.8
0.00246781
0.8
0.00246771
0.8
0.00246764
0.8
0.0024676
0.8
0.00246757
0.8
0.00246756
0.8
0.00246755
0.8
0.00246754
0.8
0.00246754
0.8
0.00246753
0.8
0.00246753
0.8
0.00246753
0.8
0.00246753
0.8
0.00246753
0.8
0.00246753
0.8
0.00246753
0.8
0.00246753
0.8
0.00246753
0.8
0.00246753
0.8
0.00246753
0.8
0.00246753
0.8
0.00246753
0.8
0.00246753
0.8
0.00246753
0.8
0.00246753
0.8
0.00246753
0.8
0.00246753
0.8
0.00246753
0.8
0.00246753
0.8
0.00246753
0.8
0.00246753
0.8
0.00246753
0.8
0.00246753
0.8
0.00246753
0.8
0.00246753
0.8
0.00246753
0.8
0.00246753
0.8
0.00246753
0.8
0.00246753
0.8
0.00246753
0.8
0.00246753
0.8
0.00246753
0.8
0.00246753
0.8
0.00246753
0.8
0.00246753
0.8
0.00246753
0.8
0.00246753
0.8
0.00246753
0.8
0.00246753
0.8
0.00246753
0.8
0.00246753
0.8
0.00246753
0.8
0.00246753
0.8
0.00246753
0.8
0.00246753
0.8
0.00246753
0.8
0.00246753
0.8
0.00246753
0.8
0.00246753
0.8
0.00246753
0.8
0.00246753
0.8
0.00246753
0.8
0.00246753
0.8
0.00246753
0.8
0.00246753
0.8
0.00246753
0.8
0.00246753
0.8
0.00246753
0.8
0.00246752
0.8
0.00246751
0.8
0.00246749
0.8
0.00246747
0.8
0.00246743
0.8
0.00246736
0.8
0.00246727
0.8
0.00246716
0.8
0.00246711
0.8
0.00246711
0.8
0.00246767
0.799999
0.00246596
0.800002
0.800005
0.00340431
0.798038
0.00394332
0.799083
0.00410458
0.79973
0.00413656
0.799952
0.0041137
0.80004
0.00407676
0.800067
0.00404124
0.800062
0.00401184
0.800052
0.00398963
0.800038
0.00397346
0.800028
0.00396217
0.800019
0.00395439
0.800014
0.00394917
0.800009
0.0039457
0.800006
0.00394343
0.800004
0.00394195
0.800003
0.003941
0.800002
0.0039404
0.800001
0.00394002
0.800001
0.00393978
0.8
0.00393963
0.8
0.00393954
0.8
0.00393948
0.8
0.00393945
0.8
0.00393943
0.8
0.00393941
0.8
0.0039394
0.8
0.0039394
0.8
0.0039394
0.8
0.0039394
0.8
0.00393939
0.8
0.00393939
0.8
0.00393939
0.8
0.00393939
0.8
0.00393939
0.8
0.00393939
0.8
0.00393939
0.8
0.00393939
0.8
0.00393939
0.8
0.00393939
0.8
0.00393939
0.8
0.00393939
0.8
0.00393939
0.8
0.00393939
0.8
0.00393939
0.8
0.00393939
0.8
0.00393939
0.8
0.00393939
0.8
0.00393939
0.8
0.00393939
0.8
0.00393939
0.8
0.00393939
0.8
0.00393939
0.8
0.00393939
0.8
0.00393939
0.8
0.00393939
0.8
0.00393939
0.8
0.00393939
0.8
0.00393939
0.8
0.00393939
0.8
0.00393939
0.8
0.00393939
0.8
0.00393939
0.8
0.00393939
0.8
0.00393939
0.8
0.00393939
0.8
0.00393939
0.8
0.00393939
0.8
0.00393939
0.8
0.00393939
0.8
0.00393939
0.8
0.00393939
0.8
0.00393939
0.8
0.00393939
0.8
0.00393939
0.8
0.00393939
0.8
0.00393939
0.8
0.00393939
0.8
0.00393939
0.8
0.00393939
0.8
0.00393939
0.8
0.00393939
0.8
0.00393939
0.8
0.00393939
0.8
0.00393939
0.8
0.00393939
0.8
0.00393938
0.8
0.00393938
0.8
0.00393936
0.8
0.00393934
0.8
0.00393931
0.8
0.00393925
0.8
0.00393916
0.8
0.00393905
0.8
0.00393892
0.8
0.00393889
0.8
0.00393903
0.8
0.00394005
0.799998
0.00393828
0.800003
0.800011
0.00368522
0.796805
0.00422711
0.798542
0.00439759
0.799559
0.00443988
0.79991
0.00441973
0.800061
0.00438785
0.800099
0.00435376
0.800096
0.00432659
0.800079
0.00430505
0.80006
0.00428982
0.800044
0.00427881
0.80003
0.00427141
0.800021
0.00426632
0.800014
0.00426299
0.800009
0.00426077
0.800006
0.00425935
0.800004
0.00425842
0.800003
0.00425784
0.800002
0.00425746
0.800001
0.00425723
0.800001
0.00425709
0.8
0.004257
0.8
0.00425694
0.8
0.00425691
0.8
0.00425689
0.8
0.00425687
0.8
0.00425686
0.8
0.00425686
0.8
0.00425686
0.8
0.00425686
0.8
0.00425685
0.8
0.00425685
0.8
0.00425685
0.8
0.00425685
0.8
0.00425685
0.8
0.00425685
0.8
0.00425685
0.8
0.00425685
0.8
0.00425685
0.8
0.00425685
0.8
0.00425685
0.8
0.00425685
0.8
0.00425685
0.8
0.00425685
0.8
0.00425685
0.8
0.00425685
0.8
0.00425685
0.8
0.00425685
0.8
0.00425685
0.8
0.00425685
0.8
0.00425685
0.8
0.00425685
0.8
0.00425685
0.8
0.00425685
0.8
0.00425685
0.8
0.00425685
0.8
0.00425685
0.8
0.00425685
0.8
0.00425685
0.8
0.00425685
0.8
0.00425685
0.8
0.00425685
0.8
0.00425685
0.8
0.00425685
0.8
0.00425685
0.8
0.00425685
0.8
0.00425685
0.8
0.00425685
0.8
0.00425685
0.8
0.00425685
0.8
0.00425685
0.8
0.00425685
0.8
0.00425685
0.8
0.00425685
0.8
0.00425685
0.8
0.00425685
0.8
0.00425685
0.8
0.00425685
0.8
0.00425685
0.8
0.00425685
0.8
0.00425685
0.8
0.00425685
0.8
0.00425685
0.8
0.00425685
0.8
0.00425685
0.8
0.00425685
0.8
0.00425684
0.8
0.00425684
0.8
0.00425682
0.8
0.0042568
0.8
0.00425677
0.8
0.00425672
0.8
0.00425664
0.8
0.00425654
0.8
0.00425644
0.8
0.00425647
0.8
0.00425679
0.8
0.00425818
0.799997
0.00425827
0.800003
0.800013
0.00359678
0.795569
0.00412874
0.79801
0.00430759
0.79938
0.00435692
0.799861
0.00434072
0.800077
0.00431304
0.800126
0.00428107
0.800128
0.00425592
0.800104
0.0042354
0.80008
0.00422106
0.800058
0.00421051
0.800041
0.0042035
0.800028
0.00419859
0.800019
0.00419542
0.800013
0.00419328
0.800008
0.00419192
0.800005
0.00419102
0.800003
0.00419047
0.800002
0.0041901
0.800001
0.00418988
0.800001
0.00418974
0.800001
0.00418965
0.8
0.0041896
0.8
0.00418957
0.8
0.00418954
0.8
0.00418953
0.8
0.00418952
0.8
0.00418952
0.8
0.00418952
0.8
0.00418952
0.8
0.00418951
0.8
0.00418951
0.8
0.00418951
0.8
0.00418951
0.8
0.00418951
0.8
0.00418951
0.8
0.00418951
0.8
0.00418951
0.8
0.00418951
0.8
0.00418951
0.8
0.00418951
0.8
0.00418951
0.8
0.00418951
0.8
0.00418951
0.8
0.00418951
0.8
0.00418951
0.8
0.00418951
0.8
0.00418951
0.8
0.00418951
0.8
0.00418951
0.8
0.00418951
0.8
0.00418951
0.8
0.00418951
0.8
0.00418951
0.8
0.00418951
0.8
0.00418951
0.8
0.00418951
0.8
0.00418951
0.8
0.00418951
0.8
0.00418951
0.8
0.00418951
0.8
0.00418951
0.8
0.00418951
0.8
0.00418951
0.8
0.00418951
0.8
0.00418951
0.8
0.00418951
0.8
0.00418951
0.8
0.00418951
0.8
0.00418951
0.8
0.00418951
0.8
0.00418951
0.8
0.00418951
0.8
0.00418951
0.8
0.00418951
0.8
0.00418951
0.8
0.00418951
0.8
0.00418951
0.8
0.00418951
0.8
0.00418951
0.8
0.00418951
0.8
0.00418951
0.8
0.00418951
0.8
0.00418951
0.8
0.00418951
0.8
0.00418951
0.8
0.0041895
0.8
0.0041895
0.8
0.00418949
0.8
0.00418946
0.8
0.00418943
0.8
0.00418938
0.8
0.00418931
0.8
0.00418923
0.8
0.00418916
0.8
0.00418926
0.8
0.00418977
0.799999
0.00419155
0.799995
0.00419414
0.800001
0.80001
0.00338988
0.794364
0.00390752
0.797492
0.00409138
0.799196
0.00414586
0.799806
0.00413358
0.800089
0.00410966
0.80015
0.00407995
0.800157
0.00405673
0.800127
0.00403734
0.8001
0.0040239
0.800071
0.00401386
0.800051
0.00400724
0.800035
0.00400256
0.800024
0.00399956
0.800016
0.0039975
0.80001
0.00399621
0.800007
0.00399535
0.800004
0.00399482
0.800003
0.00399447
0.800002
0.00399426
0.800001
0.00399412
0.800001
0.00399404
0.8
0.00399399
0.8
0.00399396
0.8
0.00399394
0.8
0.00399392
0.8
0.00399392
0.8
0.00399391
0.8
0.00399391
0.8
0.00399391
0.8
0.00399391
0.8
0.00399391
0.8
0.00399391
0.8
0.00399391
0.8
0.00399391
0.8
0.00399391
0.8
0.00399391
0.8
0.00399391
0.8
0.00399391
0.8
0.00399391
0.8
0.00399391
0.8
0.00399391
0.8
0.00399391
0.8
0.00399391
0.8
0.00399391
0.8
0.00399391
0.8
0.00399391
0.8
0.00399391
0.8
0.00399391
0.8
0.00399391
0.8
0.00399391
0.8
0.00399391
0.8
0.00399391
0.8
0.00399391
0.8
0.00399391
0.8
0.00399391
0.8
0.00399391
0.8
0.00399391
0.8
0.00399391
0.8
0.00399391
0.8
0.00399391
0.8
0.00399391
0.8
0.00399391
0.8
0.00399391
0.8
0.00399391
0.8
0.00399391
0.8
0.00399391
0.8
0.00399391
0.8
0.00399391
0.8
0.00399391
0.8
0.00399391
0.8
0.00399391
0.8
0.00399391
0.8
0.00399391
0.8
0.00399391
0.8
0.00399391
0.8
0.00399391
0.8
0.00399391
0.8
0.00399391
0.8
0.00399391
0.8
0.00399391
0.8
0.00399391
0.8
0.00399391
0.8
0.00399391
0.8
0.0039939
0.8
0.0039939
0.8
0.0039939
0.8
0.00399389
0.8
0.00399388
0.8
0.00399386
0.8
0.00399383
0.8
0.00399378
0.8
0.00399372
0.8
0.00399365
0.8
0.00399362
0.8
0.00399377
0.8
0.00399447
0.799998
0.00399664
0.799993
0.00400168
0.799996
0.800002
0.00314848
0.793211
0.00364924
0.796991
0.00383461
0.799011
0.00389274
0.799748
0.00388396
0.800098
0.00386347
0.800171
0.00383601
0.800185
0.00381466
0.800149
0.00379644
0.800118
0.00378389
0.800084
0.00377441
0.800061
0.00376819
0.800041
0.00376375
0.800028
0.00376092
0.800018
0.00375896
0.800012
0.00375774
0.800008
0.00375692
0.800005
0.00375642
0.800003
0.00375608
0.800002
0.00375588
0.800001
0.00375575
0.800001
0.00375567
0.8
0.00375562
0.8
0.00375559
0.8
0.00375557
0.8
0.00375556
0.8
0.00375555
0.8
0.00375555
0.8
0.00375555
0.8
0.00375555
0.8
0.00375555
0.8
0.00375554
0.8
0.00375554
0.8
0.00375554
0.8
0.00375554
0.8
0.00375554
0.8
0.00375554
0.8
0.00375554
0.8
0.00375554
0.8
0.00375554
0.8
0.00375554
0.8
0.00375554
0.8
0.00375554
0.8
0.00375554
0.8
0.00375554
0.8
0.00375554
0.8
0.00375554
0.8
0.00375554
0.8
0.00375554
0.8
0.00375554
0.8
0.00375554
0.8
0.00375554
0.8
0.00375554
0.8
0.00375554
0.8
0.00375554
0.8
0.00375554
0.8
0.00375554
0.8
0.00375554
0.8
0.00375554
0.8
0.00375554
0.8
0.00375554
0.8
0.00375554
0.8
0.00375554
0.8
0.00375554
0.8
0.00375554
0.8
0.00375554
0.8
0.00375554
0.8
0.00375554
0.8
0.00375554
0.8
0.00375554
0.8
0.00375554
0.8
0.00375554
0.8
0.00375554
0.8
0.00375554
0.8
0.00375554
0.8
0.00375554
0.8
0.00375554
0.8
0.00375554
0.8
0.00375554
0.8
0.00375554
0.8
0.00375554
0.8
0.00375554
0.8
0.00375554
0.8
0.00375554
0.8
0.00375554
0.8
0.00375554
0.8
0.00375554
0.8
0.00375553
0.8
0.00375552
0.8
0.0037555
0.8
0.00375547
0.8
0.00375543
0.8
0.00375537
0.8
0.00375531
0.800001
0.00375531
0.8
0.00375552
0.8
0.0037564
0.799997
0.00375891
0.799991
0.00376606
0.799989
0.799991
0.00290062
0.79212
0.00338209
0.79651
0.00356579
0.798827
0.0036262
0.799688
0.00362044
0.800104
0.00360304
0.800188
0.0035778
0.80021
0.00355826
0.800168
0.00354123
0.800135
0.00352958
0.800096
0.00352066
0.800069
0.00351485
0.800047
0.00351066
0.800032
0.003508
0.800021
0.00350616
0.800014
0.00350501
0.800009
0.00350423
0.800006
0.00350376
0.800004
0.00350344
0.800002
0.00350325
0.800001
0.00350313
0.800001
0.00350305
0.800001
0.003503
0.8
0.00350298
0.8
0.00350296
0.8
0.00350295
0.8
0.00350294
0.8
0.00350294
0.8
0.00350293
0.8
0.00350293
0.8
0.00350293
0.8
0.00350293
0.8
0.00350293
0.8
0.00350293
0.8
0.00350293
0.8
0.00350293
0.8
0.00350293
0.8
0.00350293
0.8
0.00350293
0.8
0.00350293
0.8
0.00350293
0.8
0.00350293
0.8
0.00350293
0.8
0.00350293
0.8
0.00350293
0.8
0.00350293
0.8
0.00350293
0.8
0.00350293
0.8
0.00350293
0.8
0.00350293
0.8
0.00350293
0.8
0.00350293
0.8
0.00350293
0.8
0.00350293
0.8
0.00350293
0.8
0.00350293
0.8
0.00350293
0.8
0.00350293
0.8
0.00350293
0.8
0.00350293
0.8
0.00350293
0.8
0.00350293
0.8
0.00350293
0.8
0.00350293
0.8
0.00350293
0.8
0.00350293
0.8
0.00350293
0.8
0.00350293
0.8
0.00350293
0.8
0.00350293
0.8
0.00350293
0.8
0.00350293
0.8
0.00350293
0.8
0.00350293
0.8
0.00350293
0.8
0.00350293
0.8
0.00350293
0.8
0.00350293
0.8
0.00350293
0.8
0.00350293
0.8
0.00350293
0.8
0.00350293
0.8
0.00350293
0.8
0.00350293
0.8
0.00350293
0.8
0.00350293
0.8
0.00350292
0.8
0.00350292
0.8
0.00350291
0.8
0.00350289
0.8
0.00350286
0.8
0.00350282
0.8
0.00350277
0.8
0.00350273
0.800001
0.00350275
0.8
0.00350301
0.799999
0.00350403
0.799996
0.00350684
0.799988
0.00351566
0.79998
0.799976
0.00265554
0.791102
0.0031151
0.79605
0.00329439
0.798648
0.00335576
0.799626
0.00335254
0.800107
0.00333792
0.800203
0.00331482
0.800233
0.00329704
0.800186
0.00328121
0.800151
0.00327046
0.800106
0.00326213
0.800078
0.00325673
0.800052
0.0032528
0.800036
0.00325033
0.800024
0.00324859
0.800016
0.00324752
0.80001
0.00324679
0.800007
0.00324634
0.800004
0.00324605
0.800003
0.00324587
0.800002
0.00324575
0.800001
0.00324568
0.800001
0.00324563
0.8
0.00324561
0.8
0.00324559
0.8
0.00324558
0.8
0.00324557
0.8
0.00324557
0.8
0.00324557
0.8
0.00324557
0.8
0.00324557
0.8
0.00324557
0.8
0.00324557
0.8
0.00324556
0.8
0.00324556
0.8
0.00324556
0.8
0.00324556
0.8
0.00324556
0.8
0.00324556
0.8
0.00324556
0.8
0.00324556
0.8
0.00324556
0.8
0.00324556
0.8
0.00324556
0.8
0.00324556
0.8
0.00324556
0.8
0.00324556
0.8
0.00324556
0.8
0.00324556
0.8
0.00324556
0.8
0.00324557
0.8
0.00324556
0.8
0.00324557
0.8
0.00324556
0.8
0.00324557
0.8
0.00324556
0.8
0.00324557
0.8
0.00324556
0.8
0.00324557
0.8
0.00324556
0.8
0.00324557
0.8
0.00324556
0.8
0.00324557
0.8
0.00324556
0.8
0.00324557
0.8
0.00324557
0.8
0.00324557
0.8
0.00324557
0.8
0.00324557
0.8
0.00324556
0.8
0.00324557
0.8
0.00324556
0.8
0.00324557
0.8
0.00324557
0.8
0.00324557
0.8
0.00324557
0.8
0.00324557
0.8
0.00324557
0.8
0.00324557
0.8
0.00324556
0.8
0.00324556
0.8
0.00324556
0.8
0.00324556
0.8
0.00324556
0.8
0.00324556
0.8
0.00324556
0.8
0.00324556
0.8
0.00324555
0.8
0.00324554
0.8
0.00324553
0.8
0.0032455
0.8
0.00324547
0.8
0.00324542
0.800001
0.00324539
0.800001
0.00324543
0.8
0.00324573
0.799999
0.00324688
0.799995
0.00324991
0.799985
0.00325994
0.79997
0.799958
0.00241609
0.790161
0.00285094
0.795615
0.00302349
0.798476
0.00308457
0.799565
0.00308342
0.800108
0.00307127
0.800215
0.00305026
0.800254
0.00303417
0.800202
0.00301957
0.800166
0.0030097
0.800116
0.00300198
0.800086
0.00299699
0.800057
0.00299335
0.80004
0.00299105
0.800026
0.00298944
0.800017
0.00298844
0.800011
0.00298776
0.800007
0.00298734
0.800005
0.00298707
0.800003
0.0029869
0.800002
0.00298679
0.800001
0.00298672
0.800001
0.00298668
0.8
0.00298666
0.8
0.00298664
0.8
0.00298663
0.8
0.00298662
0.8
0.00298662
0.8
0.00298662
0.8
0.00298662
0.8
0.00298662
0.8
0.00298662
0.8
0.00298662
0.8
0.00298662
0.8
0.00298662
0.8
0.00298662
0.8
0.00298662
0.8
0.00298662
0.8
0.00298662
0.8
0.00298662
0.8
0.00298662
0.8
0.00298662
0.8
0.00298662
0.8
0.00298662
0.8
0.00298662
0.8
0.00298662
0.8
0.00298662
0.8
0.00298662
0.8
0.00298662
0.8
0.00298662
0.8
0.00298662
0.8
0.00298662
0.8
0.00298662
0.8
0.00298662
0.8
0.00298662
0.8
0.00298662
0.8
0.00298662
0.8
0.00298662
0.8
0.00298662
0.8
0.00298662
0.8
0.00298662
0.8
0.00298662
0.8
0.00298662
0.8
0.00298662
0.8
0.00298662
0.8
0.00298662
0.8
0.00298662
0.8
0.00298662
0.8
0.00298662
0.8
0.00298662
0.8
0.00298662
0.8
0.00298662
0.8
0.00298662
0.8
0.00298662
0.8
0.00298662
0.8
0.00298662
0.8
0.00298662
0.8
0.00298662
0.8
0.00298662
0.8
0.00298662
0.8
0.00298662
0.8
0.00298662
0.8
0.00298662
0.8
0.00298662
0.8
0.00298661
0.8
0.00298661
0.8
0.00298661
0.8
0.0029866
0.8
0.00298659
0.8
0.00298658
0.8
0.00298656
0.8
0.00298653
0.8
0.00298649
0.800001
0.00298646
0.800001
0.00298653
0.8
0.00298685
0.799999
0.00298809
0.799994
0.00299126
0.799982
0.0030021
0.799959
0.799939
0.00218295
0.789302
0.00259024
0.795208
0.00275402
0.798312
0.00281366
0.799506
0.00281415
0.800107
0.00280415
0.800225
0.00278518
0.800273
0.00277073
0.800217
0.00275736
0.800179
0.00274837
0.800125
0.00274127
0.800093
0.00273671
0.800062
0.00273334
0.800043
0.00273124
0.800028
0.00272974
0.800019
0.00272883
0.800012
0.0027282
0.800008
0.00272781
0.800005
0.00272756
0.800003
0.0027274
0.800002
0.0027273
0.800001
0.00272724
0.800001
0.0027272
0.8
0.00272718
0.8
0.00272716
0.8
0.00272715
0.8
0.00272715
0.8
0.00272714
0.8
0.00272714
0.8
0.00272714
0.8
0.00272714
0.8
0.00272714
0.8
0.00272714
0.8
0.00272714
0.8
0.00272714
0.8
0.00272714
0.8
0.00272714
0.8
0.00272714
0.8
0.00272714
0.8
0.00272714
0.8
0.00272714
0.8
0.00272714
0.8
0.00272714
0.8
0.00272714
0.8
0.00272714
0.8
0.00272714
0.8
0.00272714
0.8
0.00272714
0.8
0.00272714
0.8
0.00272714
0.8
0.00272714
0.8
0.00272714
0.8
0.00272714
0.8
0.00272714
0.8
0.00272714
0.8
0.00272714
0.8
0.00272714
0.8
0.00272714
0.8
0.00272714
0.8
0.00272714
0.8
0.00272714
0.8
0.00272714
0.8
0.00272714
0.8
0.00272714
0.8
0.00272714
0.8
0.00272714
0.8
0.00272714
0.8
0.00272714
0.8
0.00272714
0.8
0.00272714
0.8
0.00272714
0.8
0.00272714
0.8
0.00272714
0.8
0.00272714
0.8
0.00272714
0.8
0.00272714
0.8
0.00272714
0.8
0.00272714
0.8
0.00272714
0.8
0.00272714
0.8
0.00272714
0.8
0.00272714
0.8
0.00272714
0.8
0.00272714
0.8
0.00272714
0.8
0.00272714
0.8
0.00272713
0.8
0.00272713
0.8
0.00272712
0.8
0.00272711
0.8
0.00272709
0.8
0.00272706
0.8
0.00272702
0.800001
0.00272701
0.800001
0.00272709
0.8
0.00272743
0.799998
0.00272873
0.799993
0.00273196
0.799978
0.0027432
0.799948
0.799919
0.00195595
0.788524
0.00233296
0.794831
0.0024862
0.798159
0.00254332
0.799449
0.00254505
0.800106
0.00253691
0.800233
0.00251994
0.80029
0.00250706
0.800229
0.00249493
0.800191
0.00248683
0.800133
0.00248035
0.800099
0.00247622
0.800066
0.00247315
0.800046
0.00247123
0.80003
0.00246987
0.80002
0.00246903
0.800013
0.00246846
0.800009
0.00246811
0.800005
0.00246787
0.800003
0.00246773
0.800002
0.00246764
0.800001
0.00246758
0.800001
0.00246754
0.800001
0.00246752
0.8
0.00246751
0.8
0.0024675
0.8
0.0024675
0.8
0.00246749
0.8
0.00246749
0.8
0.00246749
0.8
0.00246749
0.8
0.00246749
0.8
0.00246749
0.8
0.00246749
0.8
0.00246749
0.8
0.00246749
0.8
0.00246749
0.8
0.00246749
0.8
0.00246749
0.8
0.00246749
0.8
0.00246749
0.8
0.00246749
0.8
0.00246749
0.8
0.00246749
0.8
0.00246749
0.8
0.00246749
0.8
0.00246749
0.8
0.00246749
0.8
0.00246749
0.8
0.00246749
0.8
0.00246749
0.8
0.00246749
0.8
0.00246749
0.8
0.00246749
0.8
0.00246749
0.8
0.00246749
0.8
0.00246749
0.8
0.00246749
0.8
0.00246749
0.8
0.00246749
0.8
0.00246749
0.8
0.00246749
0.8
0.00246749
0.8
0.00246749
0.8
0.00246749
0.8
0.00246749
0.8
0.00246749
0.8
0.00246749
0.8
0.00246749
0.8
0.00246749
0.8
0.00246749
0.8
0.00246749
0.8
0.00246749
0.8
0.00246749
0.8
0.00246749
0.8
0.00246749
0.8
0.00246749
0.8
0.00246749
0.8
0.00246749
0.8
0.00246749
0.8
0.00246749
0.8
0.00246749
0.8
0.00246749
0.8
0.00246749
0.8
0.00246749
0.8
0.00246748
0.8
0.00246748
0.8
0.00246748
0.8
0.00246747
0.8
0.00246746
0.8
0.00246744
0.8
0.00246741
0.8
0.00246739
0.800001
0.00246738
0.800001
0.00246746
0.8
0.00246781
0.799998
0.00246913
0.799991
0.00247234
0.799975
0.00248363
0.799936
0.799898
0.00173467
0.78783
0.00207883
0.794487
0.00221998
0.798017
0.00227363
0.799395
0.00227623
0.800103
0.00226968
0.80024
0.00225465
0.800305
0.00224328
0.800241
0.00223241
0.800202
0.00222518
0.80014
0.00221936
0.800105
0.00221565
0.800069
0.00221288
0.800049
0.00221116
0.800032
0.00220993
0.800022
0.00220917
0.800014
0.00220865
0.800009
0.00220834
0.800006
0.00220812
0.800004
0.002208
0.800002
0.00220791
0.800001
0.00220786
0.800001
0.00220783
0.800001
0.00220781
0.8
0.0022078
0.8
0.00220779
0.8
0.00220778
0.8
0.00220778
0.8
0.00220778
0.8
0.00220778
0.8
0.00220778
0.8
0.00220778
0.8
0.00220778
0.8
0.00220778
0.8
0.00220778
0.8
0.00220778
0.8
0.00220778
0.8
0.00220778
0.8
0.00220778
0.8
0.00220778
0.8
0.00220778
0.8
0.00220778
0.8
0.00220778
0.8
0.00220778
0.8
0.00220778
0.8
0.00220778
0.8
0.00220778
0.8
0.00220778
0.8
0.00220778
0.8
0.00220778
0.8
0.00220778
0.8
0.00220778
0.8
0.00220778
0.8
0.00220778
0.8
0.00220778
0.8
0.00220778
0.8
0.00220778
0.8
0.00220778
0.8
0.00220778
0.8
0.00220778
0.8
0.00220778
0.8
0.00220778
0.8
0.00220778
0.8
0.00220778
0.8
0.00220778
0.8
0.00220778
0.8
0.00220778
0.8
0.00220778
0.8
0.00220778
0.8
0.00220778
0.8
0.00220778
0.8
0.00220778
0.8
0.00220778
0.8
0.00220778
0.8
0.00220778
0.8
0.00220778
0.8
0.00220778
0.8
0.00220778
0.8
0.00220778
0.8
0.00220778
0.8
0.00220778
0.8
0.00220778
0.8
0.00220778
0.8
0.00220778
0.8
0.00220778
0.8
0.00220777
0.8
0.00220777
0.8
0.00220777
0.8
0.00220776
0.8
0.00220775
0.8
0.00220773
0.8
0.00220771
0.8
0.00220769
0.800001
0.00220768
0.800001
0.00220778
0.8
0.00220812
0.799998
0.00220942
0.79999
0.00221254
0.799972
0.00222354
0.799925
0.799878
0.00151855
0.78722
0.00182754
0.794178
0.00195524
0.79789
0.00200456
0.799346
0.00200769
0.8001
0.00200249
0.800245
0.00198936
0.800318
0.00197945
0.800251
0.00196985
0.800211
0.00196348
0.800147
0.00195832
0.80011
0.00195504
0.800073
0.00195258
0.800052
0.00195105
0.800033
0.00194996
0.800023
0.00194929
0.800014
0.00194883
0.80001
0.00194855
0.800006
0.00194835
0.800004
0.00194824
0.800002
0.00194817
0.800002
0.00194812
0.800001
0.00194809
0.800001
0.00194807
0.8
0.00194806
0.8
0.00194806
0.8
0.00194805
0.8
0.00194805
0.8
0.00194805
0.8
0.00194805
0.8
0.00194805
0.8
0.00194805
0.8
0.00194805
0.8
0.00194805
0.8
0.00194805
0.8
0.00194805
0.8
0.00194805
0.8
0.00194805
0.8
0.00194805
0.8
0.00194805
0.8
0.00194805
0.8
0.00194805
0.8
0.00194805
0.8
0.00194805
0.8
0.00194805
0.8
0.00194805
0.8
0.00194805
0.8
0.00194805
0.8
0.00194805
0.8
0.00194805
0.8
0.00194805
0.8
0.00194805
0.8
0.00194805
0.8
0.00194805
0.8
0.00194805
0.8
0.00194805
0.8
0.00194805
0.8
0.00194805
0.8
0.00194805
0.8
0.00194805
0.8
0.00194805
0.8
0.00194805
0.8
0.00194805
0.8
0.00194805
0.8
0.00194805
0.8
0.00194805
0.8
0.00194805
0.8
0.00194805
0.8
0.00194805
0.8
0.00194805
0.8
0.00194805
0.8
0.00194805
0.8
0.00194805
0.8
0.00194805
0.8
0.00194805
0.8
0.00194805
0.8
0.00194805
0.8
0.00194805
0.8
0.00194805
0.8
0.00194805
0.8
0.00194805
0.8
0.00194805
0.8
0.00194805
0.8
0.00194805
0.8
0.00194805
0.8
0.00194804
0.8
0.00194804
0.8
0.00194804
0.8
0.00194803
0.8
0.00194802
0.8
0.00194801
0.8
0.00194799
0.8
0.00194797
0.800001
0.00194797
0.800001
0.00194806
0.8
0.0019484
0.799997
0.00194964
0.799989
0.00195258
0.799969
0.001963
0.799915
0.799858
0.00130698
0.786693
0.00157877
0.793906
0.00169183
0.797777
0.00173607
0.799301
0.00173943
0.800097
0.00173536
0.800249
0.00172408
0.80033
0.00171559
0.800259
0.00170726
0.80022
0.00170175
0.800152
0.00169725
0.800115
0.00169441
0.800076
0.00169226
0.800054
0.00169093
0.800034
0.00168998
0.800024
0.0016894
0.800015
0.00168899
0.80001
0.00168875
0.800006
0.00168858
0.800004
0.00168848
0.800002
0.00168841
0.800002
0.00168837
0.800001
0.00168835
0.800001
0.00168833
0.8
0.00168832
0.8
0.00168832
0.8
0.00168831
0.8
0.00168831
0.8
0.00168831
0.8
0.00168831
0.8
0.00168831
0.8
0.00168831
0.8
0.00168831
0.8
0.00168831
0.8
0.00168831
0.8
0.00168831
0.8
0.00168831
0.8
0.00168831
0.8
0.00168831
0.8
0.00168831
0.8
0.00168831
0.8
0.00168831
0.8
0.00168831
0.8
0.00168831
0.8
0.00168831
0.8
0.00168831
0.8
0.00168831
0.8
0.00168831
0.8
0.00168831
0.8
0.00168831
0.8
0.00168831
0.8
0.00168831
0.8
0.00168831
0.8
0.00168831
0.8
0.00168831
0.8
0.00168831
0.8
0.00168831
0.8
0.00168831
0.8
0.00168831
0.8
0.00168831
0.8
0.00168831
0.8
0.00168831
0.8
0.00168831
0.8
0.00168831
0.8
0.00168831
0.8
0.00168831
0.8
0.00168831
0.8
0.00168831
0.8
0.00168831
0.8
0.00168831
0.8
0.00168831
0.8
0.00168831
0.8
0.00168831
0.8
0.00168831
0.8
0.00168831
0.8
0.00168831
0.8
0.00168831
0.8
0.00168831
0.8
0.00168831
0.8
0.00168831
0.8
0.00168831
0.8
0.00168831
0.8
0.00168831
0.8
0.00168831
0.8
0.00168831
0.8
0.00168831
0.8
0.00168831
0.8
0.0016883
0.8
0.0016883
0.8
0.00168829
0.8
0.00168828
0.8
0.00168826
0.800001
0.00168824
0.800001
0.00168825
0.800001
0.00168834
0.8
0.00168865
0.799997
0.0016898
0.799988
0.0016925
0.799966
0.00170208
0.799905
0.79984
0.00109933
0.786248
0.00133218
0.793673
0.00142957
0.797679
0.00146809
0.799263
0.0014714
0.800093
0.00146828
0.800252
0.00145881
0.800339
0.00145169
0.800266
0.00144464
0.800227
0.00143998
0.800157
0.00143617
0.800118
0.00143376
0.800078
0.00143193
0.800056
0.00143081
0.800036
0.00142999
0.800024
0.0014295
0.800015
0.00142915
0.80001
0.00142894
0.800006
0.0014288
0.800004
0.00142872
0.800003
0.00142866
0.800002
0.00142863
0.800001
0.0014286
0.800001
0.00142859
0.8
0.00142858
0.8
0.00142858
0.8
0.00142857
0.8
0.00142857
0.8
0.00142857
0.8
0.00142857
0.8
0.00142857
0.8
0.00142857
0.8
0.00142857
0.8
0.00142857
0.8
0.00142857
0.8
0.00142857
0.8
0.00142857
0.8
0.00142857
0.8
0.00142857
0.8
0.00142857
0.8
0.00142857
0.8
0.00142857
0.8
0.00142857
0.8
0.00142857
0.8
0.00142857
0.8
0.00142857
0.8
0.00142857
0.8
0.00142857
0.8
0.00142857
0.8
0.00142857
0.8
0.00142857
0.8
0.00142857
0.8
0.00142857
0.8
0.00142857
0.8
0.00142857
0.8
0.00142857
0.8
0.00142857
0.8
0.00142857
0.8
0.00142857
0.8
0.00142857
0.8
0.00142857
0.8
0.00142857
0.8
0.00142857
0.8
0.00142857
0.8
0.00142857
0.8
0.00142857
0.8
0.00142857
0.8
0.00142857
0.8
0.00142857
0.8
0.00142857
0.8
0.00142857
0.8
0.00142857
0.8
0.00142857
0.8
0.00142857
0.8
0.00142857
0.8
0.00142857
0.8
0.00142857
0.8
0.00142857
0.8
0.00142857
0.8
0.00142857
0.8
0.00142857
0.8
0.00142857
0.8
0.00142857
0.8
0.00142857
0.8
0.00142857
0.8
0.00142857
0.8
0.00142857
0.8
0.00142856
0.8
0.00142856
0.8
0.00142855
0.8
0.00142854
0.8
0.00142853
0.800001
0.00142852
0.800001
0.00142852
0.800001
0.00142861
0.8
0.00142889
0.799997
0.00142992
0.799987
0.00143231
0.799964
0.00144081
0.799897
0.799824
0.000894991
0.785886
0.00108744
0.793481
0.0011683
0.797598
0.00120055
0.799231
0.00120358
0.80009
0.00120124
0.800254
0.00119355
0.800347
0.00118778
0.800272
0.001182
0.800233
0.0011782
0.800161
0.00117507
0.800122
0.00117309
0.80008
0.00117159
0.800057
0.00117067
0.800036
0.00117
0.800025
0.00116959
0.800016
0.00116931
0.800011
0.00116914
0.800007
0.00116902
0.800004
0.00116895
0.800003
0.0011689
0.800002
0.00116888
0.800001
0.00116886
0.800001
0.00116885
0.8
0.00116884
0.8
0.00116884
0.8
0.00116883
0.8
0.00116883
0.8
0.00116883
0.8
0.00116883
0.8
0.00116883
0.8
0.00116883
0.8
0.00116883
0.8
0.00116883
0.8
0.00116883
0.8
0.00116883
0.8
0.00116883
0.8
0.00116883
0.8
0.00116883
0.8
0.00116883
0.8
0.00116883
0.8
0.00116883
0.8
0.00116883
0.8
0.00116883
0.8
0.00116883
0.8
0.00116883
0.8
0.00116883
0.8
0.00116883
0.8
0.00116883
0.8
0.00116883
0.8
0.00116883
0.8
0.00116883
0.8
0.00116883
0.8
0.00116883
0.8
0.00116883
0.8
0.00116883
0.8
0.00116883
0.8
0.00116883
0.8
0.00116883
0.8
0.00116883
0.8
0.00116883
0.8
0.00116883
0.8
0.00116883
0.8
0.00116883
0.8
0.00116883
0.8
0.00116883
0.8
0.00116883
0.8
0.00116883
0.8
0.00116883
0.8
0.00116883
0.8
0.00116883
0.8
0.00116883
0.8
0.00116883
0.8
0.00116883
0.8
0.00116883
0.8
0.00116883
0.8
0.00116883
0.8
0.00116883
0.8
0.00116883
0.8
0.00116883
0.8
0.00116883
0.8
0.00116883
0.8
0.00116883
0.8
0.00116883
0.8
0.00116883
0.8
0.00116883
0.8
0.00116883
0.8
0.00116883
0.8
0.00116882
0.8
0.00116882
0.8
0.00116881
0.8
0.0011688
0.800001
0.00116879
0.800001
0.00116879
0.800001
0.00116887
0.8
0.00116911
0.799997
0.00116999
0.799986
0.00117203
0.799962
0.00117925
0.79989
0.79981
0.000693339
0.785604
0.000844217
0.79333
0.000907837
0.797535
0.000933375
0.799205
0.000935938
0.800088
0.000934255
0.800256
0.000928305
0.800353
0.000923843
0.800277
0.000919349
0.800237
0.000916394
0.800164
0.000913953
0.800124
0.000912415
0.800081
0.000911245
0.800058
0.000910525
0.800037
0.000910002
0.800026
0.000909686
0.800016
0.000909463
0.800011
0.00090933
0.800007
0.000909239
0.800004
0.000909184
0.800003
0.000909148
0.800002
0.000909126
0.800001
0.000909112
0.800001
0.000909104
0.8
0.000909098
0.8
0.000909095
0.8
0.000909093
0.8
0.000909092
0.8
0.000909092
0.8
0.000909091
0.8
0.000909091
0.8
0.00090909
0.8
0.000909091
0.8
0.00090909
0.8
0.00090909
0.8
0.00090909
0.8
0.00090909
0.8
0.00090909
0.8
0.00090909
0.8
0.00090909
0.8
0.00090909
0.8
0.00090909
0.8
0.000909091
0.8
0.00090909
0.8
0.000909091
0.8
0.00090909
0.8
0.000909091
0.8
0.00090909
0.8
0.000909091
0.8
0.00090909
0.8
0.000909091
0.8
0.00090909
0.8
0.000909091
0.8
0.000909091
0.8
0.000909091
0.8
0.000909091
0.8
0.000909091
0.8
0.000909091
0.8
0.000909091
0.8
0.000909091
0.8
0.000909091
0.8
0.000909091
0.8
0.000909091
0.8
0.000909091
0.8
0.000909091
0.8
0.000909091
0.8
0.000909091
0.8
0.000909091
0.8
0.000909091
0.8
0.000909091
0.8
0.000909091
0.8
0.000909091
0.8
0.000909091
0.8
0.000909091
0.8
0.000909091
0.8
0.000909091
0.8
0.000909091
0.8
0.000909091
0.8
0.000909091
0.8
0.000909091
0.8
0.000909091
0.8
0.000909091
0.8
0.000909091
0.8
0.000909091
0.8
0.00090909
0.8
0.00090909
0.8
0.000909089
0.8
0.000909087
0.8
0.000909084
0.8
0.000909079
0.8
0.000909073
0.8
0.000909064
0.800001
0.000909057
0.800001
0.000909062
0.800001
0.000909123
0.8
0.000909319
0.799996
0.00091003
0.799985
0.000911664
0.79996
0.000917452
0.799884
0.799799
0.000493767
0.785404
0.00060217
0.793221
0.000648005
0.797489
0.000666489
0.799187
0.00066843
0.800086
0.0006673
0.800257
0.000663068
0.800357
0.000659896
0.80028
0.000656685
0.80024
0.000654577
0.800166
0.00065283
0.800126
0.000651731
0.800083
0.000650893
0.800059
0.000650378
0.800038
0.000650004
0.800026
0.000649777
0.800016
0.000649617
0.800011
0.000649522
0.800007
0.000649456
0.800004
0.000649417
0.800003
0.000649391
0.800002
0.000649376
0.800001
0.000649366
0.800001
0.00064936
0.8
0.000649356
0.8
0.000649354
0.8
0.000649352
0.8
0.000649351
0.8
0.000649351
0.8
0.000649351
0.8
0.000649351
0.8
0.00064935
0.8
0.00064935
0.8
0.00064935
0.8
0.00064935
0.8
0.00064935
0.8
0.00064935
0.8
0.00064935
0.8
0.00064935
0.8
0.00064935
0.8
0.00064935
0.8
0.00064935
0.8
0.00064935
0.8
0.00064935
0.8
0.00064935
0.8
0.00064935
0.8
0.00064935
0.8
0.00064935
0.8
0.00064935
0.8
0.00064935
0.8
0.00064935
0.8
0.00064935
0.8
0.000649351
0.8
0.00064935
0.8
0.000649351
0.8
0.000649351
0.8
0.000649351
0.8
0.000649351
0.8
0.000649351
0.8
0.000649351
0.8
0.000649351
0.8
0.00064935
0.8
0.000649351
0.8
0.00064935
0.8
0.000649351
0.8
0.00064935
0.8
0.000649351
0.8
0.00064935
0.8
0.000649351
0.8
0.000649351
0.8
0.000649351
0.8
0.000649351
0.8
0.000649351
0.8
0.000649351
0.8
0.000649351
0.8
0.000649351
0.8
0.000649351
0.8
0.000649351
0.8
0.000649351
0.8
0.000649351
0.8
0.000649351
0.8
0.000649351
0.8
0.000649351
0.8
0.00064935
0.8
0.00064935
0.8
0.00064935
0.8
0.000649349
0.8
0.000649348