/*--------------------------------*- C++ -*----------------------------------*\
| =========                 |                                                 |
| \\      /  F ield         | OpenFOAM: The Open Source CFD Toolbox           |
|  \\    /   O peration     | Version:  v1906                                 |
|   \\  /    A nd           | Web:      www.OpenFOAM.com                      |
|    \\/     M anipulation  |                                                 |
\*---------------------------------------------------------------------------*/
FoamFile
{
    version     2.0;
    format      ascii;
    class       surfaceScalarField;
    location    "1.5";
    object      phiB;
}
// * * * * * * * * * * * * * * * * * * * * * * * * * * * * * * * * * * * * * //

dimensions      [1 2 -2 0 0 -1 0];
oriented        oriented;


internalField   nonuniform List<scalar> 
7860
(
0.00151549
0.399459
0.00195203
0.399563
0.002229
0.399723
0.00244346
0.399786
0.0025836
0.39986
0.00266343
0.39992
0.00270052
0.399963
0.00270978
0.399991
0.00270237
0.400007
0.00268566
0.400017
0.00266448
0.400021
0.00264182
0.400023
0.00261951
0.400022
0.0025986
0.400021
0.00257965
0.400019
0.00256286
0.400017
0.00254825
0.400015
0.00253572
0.400013
0.00252508
0.400011
0.00251614
0.400009
0.00250869
0.400007
0.00250251
0.400006
0.00249743
0.400005
0.00249327
0.400004
0.00248989
0.400003
0.00248714
0.400003
0.00248493
0.400002
0.00248315
0.400002
0.00248173
0.400001
0.00248059
0.400001
0.00247969
0.400001
0.00247898
0.400001
0.00247842
0.400001
0.00247798
0.4
0.00247763
0.4
0.00247736
0.4
0.00247715
0.4
0.00247699
0.4
0.00247686
0.4
0.00247676
0.4
0.00247669
0.4
0.00247663
0.4
0.00247659
0.4
0.00247655
0.4
0.00247653
0.4
0.0024765
0.4
0.00247649
0.4
0.00247648
0.4
0.00247647
0.4
0.00247646
0.4
0.00247646
0.4
0.00247645
0.4
0.00247645
0.4
0.00247645
0.4
0.00247645
0.4
0.00247645
0.4
0.00247645
0.4
0.00247645
0.4
0.00247645
0.4
0.00247645
0.4
0.00247645
0.4
0.00247644
0.4
0.00247644
0.4
0.00247644
0.4
0.00247644
0.4
0.00247644
0.4
0.00247644
0.4
0.00247644
0.4
0.00247644
0.4
0.00247644
0.4
0.00247644
0.4
0.00247644
0.4
0.00247643
0.4
0.00247643
0.4
0.00247642
0.4
0.00247642
0.4
0.00247641
0.4
0.0024764
0.4
0.00247638
0.4
0.00247636
0.4
0.00247633
0.4
0.0024763
0.4
0.00247625
0.4
0.00247619
0.4
0.00247612
0.4
0.00247603
0.4
0.00247593
0.4
0.00247581
0.4
0.00247567
0.4
0.00247554
0.4
0.00247544
0.4
0.0024754
0.4
0.00247553
0.4
0.00247592
0.4
0.00247672
0.399999
0.002478
0.399999
0.00247922
0.399999
0.00247899
0.4
0.00247351
0.400005
0.400015
0.00311141
0.398398
0.00380296
0.398872
0.00424199
0.399284
0.0045576
0.39947
0.00476058
0.399657
0.00487775
0.399803
0.00493403
0.399907
0.0049509
0.399974
0.00494388
0.400014
0.00492341
0.400037
0.00489625
0.400048
0.00486666
0.400052
0.00483724
0.400052
0.00480949
0.400049
0.00478422
0.400044
0.00476175
0.400039
0.00474216
0.400034
0.0047253
0.400029
0.00471098
0.400025
0.00469891
0.400021
0.00468883
0.400018
0.00468048
0.400015
0.00467359
0.400012
0.00466795
0.40001
0.00466335
0.400008
0.00465962
0.400006
0.00465661
0.400005
0.00465419
0.400004
0.00465225
0.400003
0.0046507
0.400003
0.00464947
0.400002
0.00464849
0.400002
0.00464773
0.400001
0.00464712
0.400001
0.00464665
0.400001
0.00464628
0.400001
0.00464599
0.4
0.00464577
0.4
0.0046456
0.4
0.00464546
0.4
0.00464536
0.4
0.00464528
0.4
0.00464522
0.4
0.00464517
0.4
0.00464514
0.4
0.00464511
0.4
0.00464509
0.4
0.00464507
0.4
0.00464506
0.4
0.00464505
0.4
0.00464505
0.4
0.00464504
0.4
0.00464504
0.4
0.00464503
0.4
0.00464503
0.4
0.00464503
0.4
0.00464503
0.4
0.00464503
0.4
0.00464503
0.4
0.00464503
0.4
0.00464503
0.4
0.00464503
0.4
0.00464503
0.4
0.00464503
0.4
0.00464503
0.4
0.00464502
0.4
0.00464502
0.4
0.00464502
0.4
0.00464502
0.4
0.00464502
0.4
0.00464502
0.4
0.00464501
0.4
0.00464501
0.4
0.004645
0.4
0.004645
0.4
0.00464499
0.4
0.00464498
0.4
0.00464496
0.4
0.00464494
0.4
0.00464491
0.4
0.00464487
0.4
0.00464483
0.4
0.00464477
0.4
0.00464469
0.4
0.00464459
0.4
0.00464447
0.4
0.00464433
0.4
0.00464418
0.4
0.00464401
0.4
0.00464385
0.4
0.00464374
0.4
0.00464376
0.4
0.00464401
0.4
0.00464469
0.399999
0.00464599
0.399998
0.00464803
0.399997
0.00465014
0.399997
0.00465036
0.4
0.00464262
0.400013
0.400035
0.00373058
0.397124
0.00450645
0.398096
0.00500785
0.398783
0.00534654
0.399131
0.00556009
0.399443
0.00568435
0.399679
0.0057461
0.399845
0.00576765
0.399952
0.00576454
0.400018
0.00574736
0.400054
0.00572295
0.400073
0.00569564
0.40008
0.0056681
0.400079
0.0056419
0.400075
0.0056179
0.400068
0.00559648
0.400061
0.00557772
0.400053
0.00556154
0.400046
0.00554776
0.400039
0.00553613
0.400033
0.0055264
0.400027
0.00551832
0.400023
0.00551165
0.400019
0.00550618
0.400015
0.00550172
0.400012
0.00549809
0.40001
0.00549516
0.400008
0.0054928
0.400007
0.00549091
0.400005
0.0054894
0.400004
0.0054882
0.400003
0.00548724
0.400003
0.00548649
0.400002
0.0054859
0.400002
0.00548544
0.400001
0.00548508
0.400001
0.00548479
0.400001
0.00548457
0.400001
0.0054844
0.4
0.00548427
0.4
0.00548417
0.4
0.00548409
0.4
0.00548403
0.4
0.00548399
0.4
0.00548395
0.4
0.00548393
0.4
0.00548391
0.4
0.00548389
0.4
0.00548388
0.4
0.00548387
0.4
0.00548386
0.4
0.00548386
0.4
0.00548385
0.4
0.00548385
0.4
0.00548385
0.4
0.00548385
0.4
0.00548385
0.4
0.00548385
0.4
0.00548385
0.4
0.00548384
0.4
0.00548384
0.4
0.00548384
0.4
0.00548384
0.4
0.00548384
0.4
0.00548384
0.4
0.00548384
0.4
0.00548384
0.4
0.00548384
0.4
0.00548384
0.4
0.00548384
0.4
0.00548384
0.4
0.00548383
0.4
0.00548383
0.4
0.00548382
0.4
0.00548382
0.4
0.00548381
0.4
0.0054838
0.4
0.00548378
0.4
0.00548376
0.4
0.00548373
0.4
0.00548369
0.4
0.00548365
0.4
0.00548359
0.4
0.00548351
0.4
0.00548342
0.4
0.00548331
0.4
0.00548318
0.4
0.00548304
0.4
0.00548289
0.4
0.00548277
0.4
0.00548271
0.4
0.0054828
0.4
0.00548316
0.399999
0.005484
0.399998
0.00548555
0.399996
0.005488
0.399994
0.00549088
0.399994
0.00549253
0.399998
0.00548742
0.400018
0.400048
0.00376058
0.395772
0.00459695
0.39726
0.00514736
0.398232
0.00550411
0.398774
0.00572586
0.399222
0.00585534
0.399549
0.00592164
0.399779
0.00594741
0.399927
0.00594811
0.400017
0.00593427
0.400068
0.00591273
0.400094
0.00588786
0.400104
0.00586239
0.400105
0.00583793
0.400099
0.00581538
0.400091
0.00579515
0.400081
0.00577738
0.400071
0.00576201
0.400061
0.00574889
0.400052
0.00573779
0.400044
0.00572849
0.400037
0.00572076
0.40003
0.00571436
0.400025
0.00570911
0.400021
0.00570482
0.400017
0.00570134
0.400014
0.00569851
0.400011
0.00569624
0.400009
0.00569441
0.400007
0.00569296
0.400006
0.0056918
0.400004
0.00569087
0.400004
0.00569015
0.400003
0.00568957
0.400002
0.00568913
0.400002
0.00568877
0.400001
0.0056885
0.400001
0.00568829
0.400001
0.00568812
0.400001
0.00568799
0.4
0.0056879
0.4
0.00568782
0.4
0.00568776
0.4
0.00568772
0.4
0.00568768
0.4
0.00568766
0.4
0.00568764
0.4
0.00568762
0.4
0.00568761
0.4
0.0056876
0.4
0.00568759
0.4
0.00568759
0.4
0.00568759
0.4
0.00568758
0.4
0.00568758
0.4
0.00568758
0.4
0.00568758
0.4
0.00568758
0.4
0.00568758
0.4
0.00568758
0.4
0.00568758
0.4
0.00568758
0.4
0.00568758
0.4
0.00568757
0.4
0.00568758
0.4
0.00568757
0.4
0.00568757
0.4
0.00568757
0.4
0.00568757
0.4
0.00568757
0.4
0.00568757
0.4
0.00568756
0.4
0.00568756
0.4
0.00568756
0.4
0.00568755
0.4
0.00568754
0.4
0.00568753
0.4
0.00568751
0.4
0.00568749
0.4
0.00568747
0.4
0.00568743
0.4
0.00568739
0.4
0.00568733
0.4
0.00568726
0.4
0.00568717
0.4
0.00568707
0.4
0.00568695
0.4
0.00568683
0.400001
0.0056867
0.400001
0.00568662
0.400001
0.00568661
0.4
0.00568677
0.4
0.00568724
0.399999
0.00568824
0.399997
0.00569004
0.399995
0.00569293
0.399991
0.00569676
0.39999
0.00570056
0.399995
0.00570061
0.400018
0.400052
0.0035454
0.394446
0.00441394
0.396391
0.00499551
0.397651
0.00536437
0.398406
0.00559165
0.398994
0.00572462
0.399416
0.00579441
0.399709
0.00582375
0.399897
0.00582788
0.400013
0.00581719
0.400079
0.00579845
0.400113
0.00577604
0.400127
0.00575267
0.400128
0.00573
0.400122
0.00570895
0.400112
0.00568999
0.4001
0.00567327
0.400087
0.00565878
0.400075
0.00564637
0.400064
0.00563586
0.400054
0.00562704
0.400045
0.00561969
0.400038
0.0056136
0.400031
0.0056086
0.400026
0.00560451
0.400021
0.00560118
0.400017
0.00559849
0.400014
0.00559631
0.400011
0.00559457
0.400009
0.00559317
0.400007
0.00559206
0.400006
0.00559117
0.400004
0.00559047
0.400004
0.00558992
0.400003
0.00558949
0.400002
0.00558915
0.400002
0.00558889
0.400001
0.00558868
0.400001
0.00558852
0.400001
0.0055884
0.400001
0.00558831
0.4
0.00558823
0.4
0.00558818
0.4
0.00558813
0.4
0.0055881
0.4
0.00558807
0.4
0.00558806
0.4
0.00558804
0.4
0.00558803
0.4
0.00558802
0.4
0.00558801
0.4
0.00558801
0.4
0.00558801
0.4
0.005588
0.4
0.005588
0.4
0.005588
0.4
0.005588
0.4
0.005588
0.4
0.005588
0.4
0.005588
0.4
0.005588
0.4
0.005588
0.4
0.005588
0.4
0.005588
0.4
0.005588
0.4
0.00558799
0.4
0.00558799
0.4
0.00558799
0.4
0.00558799
0.4
0.00558799
0.4
0.00558799
0.4
0.00558799
0.4
0.00558798
0.4
0.00558798
0.4
0.00558797
0.4
0.00558796
0.4
0.00558795
0.4
0.00558794
0.4
0.00558792
0.4
0.00558789
0.4
0.00558786
0.4
0.00558781
0.4
0.00558776
0.4
0.00558769
0.4
0.00558761
0.4
0.00558752
0.400001
0.00558741
0.400001
0.0055873
0.400001
0.00558721
0.400001
0.00558715
0.400001
0.00558719
0.4
0.00558742
0.4
0.005588
0.399998
0.00558914
0.399996
0.00559118
0.399992
0.00559452
0.399988
0.00559942
0.399985
0.00560571
0.399988
0.00561193
0.400012
0.400046
0.00324274
0.393202
0.00411636
0.395518
0.00471228
0.397055
0.00508701
0.398031
0.0053169
0.398764
0.00545163
0.399282
0.0055238
0.399637
0.00555596
0.399865
0.00556305
0.400006
0.00555522
0.400087
0.00553911
0.400129
0.00551905
0.400147
0.00549774
0.400149
0.00547686
0.400143
0.00545734
0.400131
0.00543967
0.400118
0.00542404
0.400103
0.00541044
0.400089
0.00539878
0.400076
0.00538889
0.400064
0.00538057
0.400054
0.00537363
0.400045
0.00536788
0.400037
0.00536315
0.40003
0.00535927
0.400025
0.00535611
0.40002
0.00535355
0.400016
0.00535149
0.400013
0.00534983
0.40001
0.0053485
0.400008
0.00534744
0.400007
0.00534659
0.400005
0.00534593
0.400004
0.0053454
0.400003
0.00534499
0.400003
0.00534467
0.400002
0.00534441
0.400002
0.00534422
0.400001
0.00534407
0.400001
0.00534395
0.400001
0.00534386
0.400001
0.00534378
0.4
0.00534373
0.4
0.00534369
0.4
0.00534366
0.4
0.00534363
0.4
0.00534361
0.4
0.0053436
0.4
0.00534359
0.4
0.00534358
0.4
0.00534358
0.4
0.00534357
0.4
0.00534357
0.4
0.00534356
0.4
0.00534356
0.4
0.00534356
0.4
0.00534356
0.4
0.00534356
0.4
0.00534356
0.4
0.00534356
0.4
0.00534356
0.4
0.00534356
0.4
0.00534356
0.4
0.00534356
0.4
0.00534356
0.4
0.00534356
0.4
0.00534356
0.4
0.00534355
0.4
0.00534355
0.4
0.00534355
0.4
0.00534355
0.4
0.00534355
0.4
0.00534354
0.4
0.00534354
0.4
0.00534353
0.4
0.00534352
0.4
0.00534351
0.4
0.0053435
0.4
0.00534348
0.4
0.00534346
0.4
0.00534342
0.4
0.00534338
0.4
0.00534333
0.4
0.00534327
0.4
0.0053432
0.400001
0.00534311
0.400001
0.00534302
0.400001
0.00534292
0.400001
0.00534285
0.400001
0.00534282
0.400001
0.00534291
0.4
0.0053432
0.399999
0.00534386
0.399998
0.00534513
0.399995
0.0053474
0.39999
0.00535118
0.399984
0.00535714
0.399979
0.00536596
0.399979
0.0053783
0.4
0.400031
0.00292222
0.392068
0.0037781
0.394662
0.0043738
0.396459
0.00474834
0.397656
0.00497779
0.398535
0.00511253
0.399147
0.00518593
0.399563
0.00522011
0.399831
0.00522963
0.399996
0.00522432
0.400092
0.00521063
0.400143
0.00519279
0.400165
0.00517348
0.400169
0.00515435
0.400162
0.00513634
0.400149
0.00511997
0.400134
0.00510543
0.400118
0.00509276
0.400102
0.00508186
0.400087
0.0050726
0.400073
0.0050648
0.400061
0.00505829
0.400051
0.00505289
0.400042
0.00504844
0.400035
0.00504479
0.400028
0.00504181
0.400023
0.0050394
0.400019
0.00503745
0.400015
0.00503588
0.400012
0.00503462
0.40001
0.00503362
0.400008
0.00503282
0.400006
0.00503219
0.400005
0.00503169
0.400004
0.0050313
0.400003
0.00503099
0.400002
0.00503075
0.400002
0.00503056
0.400001
0.00503042
0.400001
0.00503031
0.400001
0.00503022
0.400001
0.00503015
0.400001
0.0050301
0.4
0.00503006
0.4
0.00503003
0.4
0.00503001
0.4
0.00502999
0.4
0.00502998
0.4
0.00502997
0.4
0.00502996
0.4
0.00502995
0.4
0.00502995
0.4
0.00502995
0.4
0.00502994
0.4
0.00502994
0.4
0.00502994
0.4
0.00502994
0.4
0.00502994
0.4
0.00502994
0.4
0.00502994
0.4
0.00502994
0.4
0.00502994
0.4
0.00502994
0.4
0.00502993
0.4
0.00502993
0.4
0.00502993
0.4
0.00502993
0.4
0.00502993
0.4
0.00502993
0.4
0.00502993
0.4
0.00502993
0.4
0.00502993
0.4
0.00502992
0.4
0.00502992
0.4
0.00502991
0.4
0.0050299
0.4
0.00502989
0.4
0.00502988
0.4
0.00502986
0.4
0.00502984
0.4
0.00502981
0.4
0.00502977
0.4
0.00502972
0.4
0.00502967
0.4
0.0050296
0.400001
0.00502952
0.400001
0.00502944
0.400001
0.00502936
0.400001
0.0050293
0.400001
0.00502931
0.400001
0.00502943
0.4
0.00502977
0.399999
0.0050305
0.399997
0.00503189
0.399993
0.00503434
0.399988
0.00503852
0.39998
0.00504547
0.399972
0.00505663
0.399968
0.00507438
0.399982
0.400007
0.00261237
0.391051
0.00343274
0.393841
0.00401611
0.395876
0.0043847
0.397288
0.00461066
0.398309
0.00474366
0.399014
0.0048171
0.39949
0.00485251
0.399795
0.00486393
0.399985
0.00486078
0.400095
0.00484927
0.400154
0.00483351
0.400181
0.00481611
0.400186
0.00479868
0.400179
0.00478216
0.400166
0.00476708
0.400149
0.00475364
0.400131
0.0047419
0.400113
0.00473178
0.400097
0.00472317
0.400082
0.0047159
0.400069
0.00470983
0.400057
0.00470479
0.400047
0.00470063
0.400039
0.00469721
0.400032
0.00469443
0.400026
0.00469216
0.400021
0.00469034
0.400017
0.00468886
0.400014
0.00468768
0.400011
0.00468674
0.400009
0.00468599
0.400007
0.0046854
0.400005
0.00468493
0.400004
0.00468456
0.400003
0.00468427
0.400003
0.00468404
0.400002
0.00468387
0.400002
0.00468373
0.400001
0.00468362
0.400001
0.00468354
0.400001
0.00468348
0.400001
0.00468343
0.4
0.00468339
0.4
0.00468336
0.4
0.00468334
0.4
0.00468332
0.4
0.00468331
0.4
0.0046833
0.4
0.00468329
0.4
0.00468329
0.4
0.00468328
0.4
0.00468328
0.4
0.00468328
0.4
0.00468328
0.4
0.00468327
0.4
0.00468327
0.4
0.00468327
0.4
0.00468327
0.4
0.00468327
0.4
0.00468327
0.4
0.00468327
0.4
0.00468327
0.4
0.00468327
0.4
0.00468327
0.4
0.00468327
0.4
0.00468327
0.4
0.00468327
0.4
0.00468327
0.4
0.00468327
0.4
0.00468326
0.4
0.00468326
0.4
0.00468326
0.4
0.00468325
0.4
0.00468325
0.4
0.00468324
0.4
0.00468323
0.4
0.00468322
0.4
0.0046832
0.4
0.00468318
0.4
0.00468315
0.4
0.00468312
0.4
0.00468307
0.4
0.00468302
0.400001
0.00468296
0.400001
0.00468289
0.400001
0.00468282
0.400001
0.00468275
0.400001
0.00468271
0.400001
0.00468274
0.400001
0.00468289
0.4
0.00468328
0.399999
0.00468407
0.399996
0.00468553
0.399992
0.00468814
0.399985
0.00469264
0.399976
0.00470043
0.399964
0.00471356
0.399955
0.00473574
0.39996
0.399977
0.00232307
0.390152
0.00309486
0.393069
0.00365592
0.395315
0.00401327
0.39693
0.00423278
0.398089
0.0043623
0.398884
0.00443464
0.399417
0.0044705
0.39976
0.00448327
0.399972
0.00448191
0.400097
0.00447236
0.400164
0.00445852
0.400194
0.00444293
0.400202
0.00442715
0.400195
0.0044121
0.400181
0.00439829
0.400163
0.00438596
0.400143
0.00437514
0.400124
0.00436582
0.400106
0.00435786
0.40009
0.00435114
0.400075
0.00434552
0.400063
0.00434084
0.400052
0.00433698
0.400043
0.00433381
0.400035
0.00433123
0.400028
0.00432912
0.400023
0.00432742
0.400019
0.00432605
0.400015
0.00432495
0.400012
0.00432407
0.400009
0.00432337
0.400008
0.00432282
0.400006
0.00432238
0.400005
0.00432203
0.400004
0.00432176
0.400003
0.00432155
0.400002
0.00432139
0.400002
0.00432126
0.400001
0.00432116
0.400001
0.00432108
0.400001
0.00432102
0.400001
0.00432097
0.4
0.00432094
0.4
0.00432091
0.4
0.00432089
0.4
0.00432088
0.4
0.00432086
0.4
0.00432086
0.4
0.00432085
0.4
0.00432084
0.4
0.00432084
0.4
0.00432084
0.4
0.00432083
0.4
0.00432083
0.4
0.00432083
0.4
0.00432083
0.4
0.00432083
0.4
0.00432083
0.4
0.00432083
0.4
0.00432083
0.4
0.00432083
0.4
0.00432083
0.4
0.00432083
0.4
0.00432083
0.4
0.00432083
0.4
0.00432083
0.4
0.00432082
0.4
0.00432082
0.4
0.00432082
0.4
0.00432082
0.4
0.00432082
0.4
0.00432082
0.4
0.00432081
0.4
0.00432081
0.4
0.0043208
0.4
0.00432079
0.4
0.00432078
0.4
0.00432076
0.4
0.00432074
0.4
0.00432072
0.4
0.00432068
0.4
0.00432064
0.4
0.00432059
0.400001
0.00432054
0.400001
0.00432048
0.400001
0.00432041
0.400001
0.00432036
0.400001
0.00432034
0.400001
0.00432038
0.400001
0.00432056
0.4
0.00432097
0.399998
0.0043218
0.399995
0.00432332
0.39999
0.00432603
0.399982
0.00433077
0.399971
0.00433919
0.399956
0.00435385
0.399941
0.00437932
0.399934
0.399941
0.00205597
0.389362
0.00277006
0.392355
0.00330073
0.394784
0.00364203
0.396589
0.00385226
0.397879
0.00397662
0.39876
0.00404676
0.399347
0.00408229
0.399724
0.0040959
0.399958
0.00409599
0.400096
0.00408814
0.400172
0.00407609
0.400206
0.00406222
0.400216
0.00404803
0.400209
0.00403442
0.400195
0.00402187
0.400175
0.00401063
0.400155
0.00400076
0.400134
0.00399222
0.400115
0.00398493
0.400097
0.00397877
0.400082
0.0039736
0.400068
0.00396931
0.400056
0.00396576
0.400046
0.00396284
0.400038
0.00396046
0.400031
0.00395852
0.400025
0.00395695
0.40002
0.00395568
0.400016
0.00395467
0.400013
0.00395385
0.40001
0.00395321
0.400008
0.00395269
0.400006
0.00395229
0.400005
0.00395197
0.400004
0.00395172
0.400003
0.00395152
0.400002
0.00395137
0.400002
0.00395125
0.400001
0.00395115
0.400001
0.00395108
0.400001
0.00395103
0.400001
0.00395098
0.400001
0.00395095
0.4
0.00395093
0.4
0.00395091
0.4
0.00395089
0.4
0.00395088
0.4
0.00395087
0.4
0.00395087
0.4
0.00395086
0.4
0.00395086
0.4
0.00395085
0.4
0.00395085
0.4
0.00395085
0.4
0.00395085
0.4
0.00395085
0.4
0.00395085
0.4
0.00395085
0.4
0.00395085
0.4
0.00395085
0.4
0.00395085
0.4
0.00395085
0.4
0.00395085
0.4
0.00395085
0.4
0.00395084
0.4
0.00395084
0.4
0.00395084
0.4
0.00395084
0.4
0.00395084
0.4
0.00395084
0.4
0.00395084
0.4
0.00395084
0.4
0.00395083
0.4
0.00395083
0.4
0.00395082
0.4
0.00395081
0.4
0.0039508
0.4
0.00395079
0.4
0.00395077
0.4
0.00395074
0.4
0.00395071
0.4
0.00395068
0.4
0.00395063
0.400001
0.00395058
0.400001
0.00395053
0.400001
0.00395047
0.400001
0.00395043
0.400001
0.00395042
0.400001
0.00395048
0.4
0.00395068
0.4
0.00395111
0.399998
0.00395195
0.399994
0.00395349
0.399989
0.00395625
0.39998
0.00396113
0.399966
0.00396995
0.399947
0.00398562
0.399925
0.00401323
0.399907
0.399902
0.00180936
0.388674
0.00245979
0.391705
0.00295356
0.39429
0.00327449
0.396268
0.00347282
0.397681
0.00359044
0.398642
0.00365731
0.39928
0.0036918
0.39969
0.00370575
0.399944
0.00370693
0.400095
0.00370058
0.400178
0.00369016
0.400217
0.00367792
0.400228
0.00366527
0.400222
0.00365306
0.400207
0.00364176
0.400187
0.00363161
0.400165
0.00362268
0.400143
0.00361495
0.400123
0.00360833
0.400104
0.00360273
0.400087
0.00359803
0.400073
0.00359412
0.40006
0.00359089
0.40005
0.00358823
0.400041
0.00358605
0.400033
0.00358429
0.400027
0.00358285
0.400022
0.0035817
0.400017
0.00358077
0.400014
0.00358002
0.400011
0.00357943
0.400009
0.00357896
0.400007
0.00357859
0.400005
0.0035783
0.400004
0.00357807
0.400003
0.00357789
0.400003
0.00357774
0.400002
0.00357763
0.400002
0.00357755
0.400001
0.00357748
0.400001
0.00357743
0.400001
0.00357739
0.400001
0.00357736
0.4
0.00357734
0.4
0.00357732
0.4
0.00357731
0.4
0.0035773
0.4
0.00357729
0.4
0.00357728
0.4
0.00357728
0.4
0.00357728
0.4
0.00357727
0.4
0.00357727
0.4
0.00357727
0.4
0.00357727
0.4
0.00357727
0.4
0.00357727
0.4
0.00357727
0.4
0.00357727
0.4
0.00357727
0.4
0.00357727
0.4
0.00357727
0.4
0.00357726
0.4
0.00357727
0.4
0.00357726
0.4
0.00357726
0.4
0.00357726
0.4
0.00357726
0.4
0.00357726
0.4
0.00357726
0.4
0.00357726
0.4
0.00357726
0.4
0.00357725
0.4
0.00357725
0.4
0.00357724
0.4
0.00357723
0.4
0.00357722
0.4
0.00357721
0.4
0.00357719
0.4
0.00357717
0.4
0.00357714
0.4
0.00357711
0.400001
0.00357707
0.400001
0.00357703
0.400001
0.00357698
0.400001
0.00357693
0.400001
0.0035769
0.400001
0.0035769
0.400001
0.00357697
0.4
0.00357717
0.399999
0.00357761
0.399997
0.00357845
0.399994
0.00357999
0.399987
0.00358273
0.399977
0.00358763
0.399961
0.00359661
0.399938
0.00361274
0.399909
0.00364138
0.399878
0.399861
0.0015804
0.38808
0.00216359
0.391122
0.00261528
0.393838
0.00291202
0.395971
0.00309603
0.397497
0.00320544
0.398533
0.00326805
0.399218
0.00330083
0.399657
0.00331464
0.39993
0.00331662
0.400093
0.00331155
0.400183
0.00330262
0.400226
0.00329192
0.400239
0.00328076
0.400233
0.00326992
0.400218
0.00325986
0.400197
0.0032508
0.400174
0.00324281
0.400151
0.00323588
0.400129
0.00322994
0.40011
0.00322491
0.400092
0.00322069
0.400077
0.00321717
0.400064
0.00321426
0.400052
0.00321187
0.400043
0.00320991
0.400035
0.00320831
0.400028
0.00320702
0.400023
0.00320597
0.400018
0.00320513
0.400015
0.00320446
0.400012
0.00320393
0.400009
0.0032035
0.400007
0.00320317
0.400006
0.0032029
0.400005
0.00320269
0.400004
0.00320253
0.400003
0.0032024
0.400002
0.0032023
0.400002
0.00320222
0.400001
0.00320216
0.400001
0.00320212
0.400001
0.00320208
0.400001
0.00320205
0.4
0.00320203
0.4
0.00320202
0.4
0.003202
0.4
0.00320199
0.4
0.00320199
0.4
0.00320198
0.4
0.00320198
0.4
0.00320198
0.4
0.00320197
0.4
0.00320197
0.4
0.00320197
0.4
0.00320197
0.4
0.00320197
0.4
0.00320197
0.4
0.00320197
0.4
0.00320197
0.4
0.00320197
0.4
0.00320197
0.4
0.00320197
0.4
0.00320197
0.4
0.00320197
0.4
0.00320196
0.4
0.00320196
0.4
0.00320196
0.4
0.00320196
0.4
0.00320196
0.4
0.00320196
0.4
0.00320196
0.4
0.00320196
0.4
0.00320195
0.4
0.00320195
0.4
0.00320194
0.4
0.00320194
0.4
0.00320193
0.4
0.00320192
0.4
0.0032019
0.4
0.00320188
0.4
0.00320186
0.4
0.00320183
0.400001
0.00320179
0.400001
0.00320175
0.400001
0.00320171
0.400001
0.00320167
0.400001
0.00320165
0.400001
0.00320166
0.400001
0.00320173
0.4
0.00320194
0.399999
0.00320237
0.399997
0.00320319
0.399993
0.00320468
0.399986
0.00320735
0.399974
0.00321214
0.399956
0.00322102
0.399929
0.0032371
0.399893
0.00326571
0.399849
0.399819
0.00136607
0.387571
0.00188017
0.390608
0.00228572
0.393433
0.00255494
0.395702
0.00272246
0.397329
0.00282229
0.398433
0.00287975
0.39916
0.00291019
0.399626
0.00292344
0.399917
0.00292591
0.400091
0.00292192
0.400187
0.00291437
0.400233
0.00290513
0.400248
0.0028954
0.400243
0.00288592
0.400227
0.00287708
0.400206
0.00286909
0.400182
0.00286204
0.400158
0.00285592
0.400136
0.00285067
0.400115
0.00284622
0.400097
0.00284248
0.400081
0.00283936
0.400067
0.00283678
0.400055
0.00283465
0.400045
0.00283291
0.400037
0.0028315
0.40003
0.00283034
0.400024
0.00282942
0.400019
0.00282867
0.400015
0.00282807
0.400012
0.0028276
0.40001
0.00282722
0.400008
0.00282692
0.400006
0.00282668
0.400005
0.00282649
0.400004
0.00282635
0.400003
0.00282623
0.400002
0.00282614
0.400002
0.00282607
0.400001
0.00282602
0.400001
0.00282598
0.400001
0.00282595
0.400001
0.00282592
0.4
0.00282591
0.4
0.00282589
0.4
0.00282588
0.4
0.00282587
0.4
0.00282587
0.4
0.00282586
0.4
0.00282586
0.4
0.00282585
0.4
0.00282585
0.4
0.00282585
0.4
0.00282585
0.4
0.00282585
0.4
0.00282585
0.4
0.00282585
0.4
0.00282585
0.4
0.00282585
0.4
0.00282585
0.4
0.00282585
0.4
0.00282585
0.4
0.00282584
0.4
0.00282585
0.4
0.00282584
0.4
0.00282584
0.4
0.00282584
0.4
0.00282584
0.4
0.00282584
0.4
0.00282584
0.4
0.00282584
0.4
0.00282584
0.4
0.00282583
0.4
0.00282583
0.4
0.00282583
0.4
0.00282582
0.4
0.00282581
0.4
0.0028258
0.4
0.00282579
0.4
0.00282577
0.4
0.00282575
0.4
0.00282572
0.400001
0.00282569
0.400001
0.00282566
0.400001
0.00282562
0.400001
0.00282559
0.400001
0.00282557
0.400001
0.00282558
0.400001
0.00282566
0.4
0.00282586
0.399999
0.00282627
0.399996
0.00282705
0.399992
0.00282846
0.399984
0.002831
0.399972
0.00283557
0.399952
0.00284409
0.399921
0.00285962
0.399877
0.00288723
0.399822
0.39978
0.00116363
0.387142
0.00160794
0.390163
0.0019642
0.393077
0.00220302
0.395463
0.00235213
0.39718
0.00244117
0.398344
0.00249266
0.399109
0.00252021
0.399599
0.0025325
0.399905
0.0025352
0.400088
0.00253212
0.40019
0.00252582
0.40024
0.00251797
0.400256
0.00250964
0.400251
0.00250147
0.400235
0.00249384
0.400213
0.00248694
0.400189
0.00248083
0.400164
0.00247551
0.400141
0.00247096
0.40012
0.00246709
0.400101
0.00246384
0.400084
0.00246112
0.40007
0.00245887
0.400057
0.00245702
0.400047
0.0024555
0.400038
0.00245427
0.400031
0.00245326
0.400025
0.00245246
0.40002
0.0024518
0.400016
0.00245128
0.400013
0.00245087
0.40001
0.00245053
0.400008
0.00245027
0.400006
0.00245007
0.400005
0.0024499
0.400004
0.00244977
0.400003
0.00244967
0.400002
0.0024496
0.400002
0.00244953
0.400001
0.00244949
0.400001
0.00244945
0.400001
0.00244942
0.400001
0.0024494
0.400001
0.00244939
0.4
0.00244937
0.4
0.00244936
0.4
0.00244936
0.4
0.00244935
0.4
0.00244935
0.4
0.00244934
0.4
0.00244934
0.4
0.00244934
0.4
0.00244934
0.4
0.00244934
0.4
0.00244933
0.4
0.00244934
0.4
0.00244933
0.4
0.00244933
0.4
0.00244933
0.4
0.00244933
0.4
0.00244933
0.4
0.00244933
0.4
0.00244933
0.4
0.00244933
0.4
0.00244933
0.4
0.00244933
0.4
0.00244933
0.4
0.00244933
0.4
0.00244933
0.4
0.00244933
0.4
0.00244933
0.4
0.00244933
0.4
0.00244932
0.4
0.00244932
0.4
0.00244932
0.4
0.00244931
0.4
0.0024493
0.4
0.00244929
0.4
0.00244928
0.4
0.00244927
0.4
0.00244925
0.4
0.00244923
0.400001
0.0024492
0.400001
0.00244917
0.400001
0.00244914
0.400001
0.00244911
0.400001
0.0024491
0.400001
0.00244912
0.400001
0.00244919
0.4
0.00244938
0.399999
0.00244976
0.399996
0.00245048
0.399991
0.00245178
0.399983
0.00245412
0.399969
0.00245835
0.399947
0.00246628
0.399913
0.00248077
0.399863
0.00250651
0.399796
0.399743
0.000970657
0.386788
0.0013452
0.389789
0.00164981
0.392772
0.00185581
0.395257
0.00198482
0.397051
0.002062
0.398267
0.00210681
0.399064
0.00213097
0.399575
0.00214197
0.399894
0.00214466
0.400085
0.00214233
0.400193
0.00213718
0.400245
0.00213066
0.400262
0.00212368
0.400258
0.00211681
0.400242
0.00211037
0.40022
0.00210454
0.400195
0.00209937
0.400169
0.00209487
0.400145
0.00209101
0.400123
0.00208773
0.400104
0.00208497
0.400087
0.00208266
0.400072
0.00208075
0.400059
0.00207918
0.400048
0.00207789
0.400039
0.00207684
0.400032
0.00207598
0.400026
0.00207529
0.400021
0.00207474
0.400017
0.0020743
0.400013
0.00207394
0.400011
0.00207366
0.400008
0.00207344
0.400007
0.00207326
0.400005
0.00207312
0.400004
0.00207301
0.400003
0.00207292
0.400002
0.00207286
0.400002
0.0020728
0.400001
0.00207277
0.400001
0.00207273
0.400001
0.00207271
0.400001
0.00207269
0.400001
0.00207268
0.4
0.00207267
0.4
0.00207266
0.4
0.00207265
0.4
0.00207265
0.4
0.00207264
0.4
0.00207264
0.4
0.00207264
0.4
0.00207264
0.4
0.00207264
0.4
0.00207264
0.4
0.00207263
0.4
0.00207263
0.4
0.00207263
0.4
0.00207263
0.4
0.00207263
0.4
0.00207263
0.4
0.00207263
0.4
0.00207263
0.4
0.00207263
0.4
0.00207263
0.4
0.00207263
0.4
0.00207263
0.4
0.00207263
0.4
0.00207263
0.4
0.00207263
0.4
0.00207263
0.4
0.00207263
0.4
0.00207263
0.4
0.00207262
0.4
0.00207262
0.4
0.00207262
0.4
0.00207261
0.4
0.00207261
0.4
0.0020726
0.4
0.00207259
0.4
0.00207258
0.4
0.00207256
0.4
0.00207254
0.400001
0.00207252
0.400001
0.00207249
0.400001
0.00207247
0.400001
0.00207245
0.400001
0.00207244
0.400001
0.00207246
0.400001
0.00207253
0.4
0.0020727
0.399999
0.00207304
0.399996
0.00207368
0.399991
0.00207484
0.399982
0.00207692
0.399967
0.00208071
0.399944
0.00208782
0.399906
0.00210085
0.39985
0.00212395
0.399773
0.399709
0.000785097
0.386503
0.00109031
0.389484
0.00134151
0.392521
0.00151268
0.395086
0.00162017
0.396944
0.00168459
0.398202
0.00172209
0.399027
0.00174244
0.399554
0.00175185
0.399885
0.00175434
0.400083
0.00175263
0.400194
0.00174854
0.400249
0.00174328
0.400267
0.00173761
0.400264
0.00173202
0.400248
0.00172677
0.400225
0.00172201
0.400199
0.00171778
0.400174
0.0017141
0.400149
0.00171093
0.400127
0.00170824
0.400107
0.00170598
0.400089
0.00170409
0.400074
0.00170252
0.400061
0.00170123
0.40005
0.00170017
0.400041
0.0016993
0.400033
0.0016986
0.400027
0.00169803
0.400021
0.00169758
0.400017
0.00169721
0.400014
0.00169692
0.400011
0.00169669
0.400009
0.0016965
0.400007
0.00169636
0.400005
0.00169624
0.400004
0.00169615
0.400003
0.00169608
0.400003
0.00169603
0.400002
0.00169599
0.400002
0.00169595
0.400001
0.00169593
0.400001
0.00169591
0.400001
0.00169589
0.400001
0.00169588
0.4
0.00169587
0.4
0.00169587
0.4
0.00169586
0.4
0.00169586
0.4
0.00169585
0.4
0.00169585
0.4
0.00169585
0.4
0.00169585
0.4
0.00169585
0.4
0.00169585
0.4
0.00169585
0.4
0.00169585
0.4
0.00169584
0.4
0.00169584
0.4
0.00169584
0.4
0.00169584
0.4
0.00169584
0.4
0.00169584
0.4
0.00169584
0.4
0.00169584
0.4
0.00169584
0.4
0.00169584
0.4
0.00169584
0.4
0.00169584
0.4
0.00169584
0.4
0.00169584
0.4
0.00169584
0.4
0.00169584
0.4
0.00169584
0.4
0.00169584
0.4
0.00169583
0.4
0.00169583
0.4
0.00169582
0.4
0.00169582
0.4
0.00169581
0.4
0.0016958
0.4
0.00169578
0.400001
0.00169577
0.400001
0.00169575
0.400001
0.00169573
0.400001
0.00169571
0.400001
0.00169569
0.400001
0.00169569
0.400001
0.00169571
0.400001
0.00169577
0.4
0.00169592
0.399998
0.00169621
0.399995
0.00169676
0.39999
0.00169774
0.399981
0.00169952
0.399966
0.00170276
0.39994
0.00170887
0.3999
0.00172006
0.399838
0.00173987
0.399753
0.399681
0.000605201
0.386284
0.000841696
0.389247
0.00103821
0.392324
0.00117295
0.394952
0.00125776
0.396859
0.00130865
0.398152
0.00133835
0.398997
0.00135455
0.399538
0.00136212
0.399877
0.00136424
0.400081
0.00136302
0.400195
0.00135992
0.400252
0.00135588
0.400271
0.00135151
0.400268
0.00134717
0.400252
0.0013431
0.400229
0.0013394
0.400203
0.00133611
0.400177
0.00133324
0.400152
0.00133078
0.400129
0.00132868
0.400109
0.00132692
0.400091
0.00132545
0.400075
0.00132422
0.400062
0.00132321
0.400051
0.00132239
0.400041
0.00132171
0.400034
0.00132117
0.400027
0.00132072
0.400022
0.00132037
0.400017
0.00132008
0.400014
0.00131985
0.400011
0.00131967
0.400009
0.00131953
0.400007
0.00131942
0.400005
0.00131933
0.400004
0.00131926
0.400003
0.0013192
0.400003
0.00131916
0.400002
0.00131912
0.400002
0.0013191
0.400001
0.00131908
0.400001
0.00131906
0.400001
0.00131905
0.400001
0.00131904
0.4
0.00131903
0.4
0.00131903
0.4
0.00131902
0.4
0.00131902
0.4
0.00131902
0.4
0.00131902
0.4
0.00131902
0.4
0.00131902
0.4
0.00131901
0.4
0.00131901
0.4
0.00131901
0.4
0.00131901
0.4
0.00131901
0.4