/*--------------------------------*- C++ -*----------------------------------*\
| =========                 |                                                 |
| \\      /  F ield         | OpenFOAM: The Open Source CFD Toolbox           |
|  \\    /   O peration     | Version:  v1906                                 |
|   \\  /    A nd           | Web:      www.OpenFOAM.com                      |
|    \\/     M anipulation  |                                                 |
\*---------------------------------------------------------------------------*/
FoamFile
{
    version     2.0;
    format      ascii;
    class       volVectorField;
    location    "1.5";
    object      U;
}
// * * * * * * * * * * * * * * * * * * * * * * * * * * * * * * * * * * * * * //

dimensions      [0 1 -1 0 0 0 0];


internalField   nonuniform List<vector> 
4000
(
(0.537563 0.056396 0)
(0.552177 0.0035977 0)
(0.517061 -0.00176438 0)
(0.522884 -0.00200138 0)
(0.521072 -0.00213099 0)
(0.522006 -0.00203789 0)
(0.521399 -0.00204488 0)
(0.521249 -0.00203491 0)
(0.520905 -0.00204435 0)
(0.520696 -0.00204825 0)
(0.520488 -0.00205392 0)
(0.52033 -0.00205751 0)
(0.520193 -0.00206085 0)
(0.520081 -0.00206337 0)
(0.519986 -0.00206545 0)
(0.519906 -0.00206708 0)
(0.519838 -0.00206842 0)
(0.51978 -0.00206949 0)
(0.519731 -0.0020704 0)
(0.519689 -0.00207115 0)
(0.519654 -0.00207179 0)
(0.519624 -0.00207232 0)
(0.519598 -0.00207279 0)
(0.519577 -0.00207316 0)
(0.519559 -0.0020735 0)
(0.519544 -0.00207377 0)
(0.519532 -0.00207401 0)
(0.519522 -0.0020742 0)
(0.519514 -0.00207437 0)
(0.519507 -0.0020745 0)
(0.519502 -0.00207462 0)
(0.519497 -0.00207472 0)
(0.519494 -0.00207479 0)
(0.519491 -0.00207484 0)
(0.519489 -0.00207491 0)
(0.519487 -0.00207493 0)
(0.519486 -0.00207499 0)
(0.519484 -0.002075 0)
(0.519484 -0.00207502 0)
(0.519483 -0.00207503 0)
(0.519482 -0.00207505 0)
(0.519482 -0.00207506 0)
(0.519482 -0.00207507 0)
(0.519481 -0.00207507 0)
(0.519481 -0.00207508 0)
(0.519481 -0.00207507 0)
(0.519481 -0.00207509 0)
(0.519481 -0.00207508 0)
(0.519481 -0.00207509 0)
(0.519481 -0.00207508 0)
(0.519481 -0.00207509 0)
(0.519481 -0.00207509 0)
(0.519481 -0.0020751 0)
(0.519481 -0.00207509 0)
(0.519481 -0.0020751 0)
(0.519481 -0.00207508 0)
(0.519481 -0.0020751 0)
(0.519481 -0.00207509 0)
(0.519481 -0.0020751 0)
(0.519481 -0.00207509 0)
(0.519481 -0.0020751 0)
(0.519481 -0.00207509 0)
(0.519481 -0.0020751 0)
(0.519481 -0.00207509 0)
(0.519481 -0.0020751 0)
(0.519481 -0.00207509 0)
(0.519481 -0.0020751 0)
(0.519481 -0.00207509 0)
(0.519481 -0.0020751 0)
(0.519481 -0.00207508 0)
(0.519481 -0.00207509 0)
(0.519481 -0.00207509 0)
(0.519481 -0.0020751 0)
(0.519481 -0.00207509 0)
(0.519481 -0.0020751 0)
(0.519481 -0.00207509 0)
(0.519481 -0.00207509 0)
(0.519481 -0.00207509 0)
(0.51948 -0.00207509 0)
(0.51948 -0.00207508 0)
(0.51948 -0.00207509 0)
(0.51948 -0.00207507 0)
(0.51948 -0.00207507 0)
(0.51948 -0.00207504 0)
(0.519479 -0.00207504 0)
(0.519479 -0.002075 0)
(0.519478 -0.00207498 0)
(0.519477 -0.00207492 0)
(0.519475 -0.00207485 0)
(0.519472 -0.00207475 0)
(0.519469 -0.00207464 0)
(0.519464 -0.00207449 0)
(0.519458 -0.00207436 0)
(0.51945 -0.00207435 0)
(0.519443 -0.00207464 0)
(0.519436 -0.00207528 0)
(0.519442 -0.00207439 0)
(0.51936 -0.0020612 0)
(0.519228 -0.0020212 0)
(0.518638 -0.00215161 0)
(0.864915 0.128451 0)
(0.911561 0.0160053 0)
(0.861953 0.000986219 0)
(0.871341 -7.20092e-05 0)
(0.867959 -0.000506395 0)
(0.869549 -0.000191303 0)
(0.868592 -0.000202324 0)
(0.868424 -0.00016421 0)
(0.867912 -0.000193555 0)
(0.867614 -0.000206032 0)
(0.867308 -0.000225209 0)
(0.867078 -0.000237833 0)
(0.866876 -0.000249759 0)
(0.866711 -0.000258962 0)
(0.86657 -0.000266252 0)
(0.866451 -0.000272053 0)
(0.86635 -0.000276915 0)
(0.866264 -0.000280897 0)
(0.86619 -0.00028433 0)
(0.866127 -0.000287245 0)
(0.866073 -0.000289791 0)
(0.866027 -0.000291964 0)
(0.865988 -0.000293866 0)
(0.865955 -0.000295436 0)
(0.865928 -0.000296846 0)
(0.865904 -0.000298009 0)
(0.865885 -0.000299024 0)
(0.865869 -0.000299862 0)
(0.865856 -0.000300597 0)
(0.865845 -0.000301198 0)
(0.865836 -0.000301734 0)
(0.865829 -0.000302144 0)
(0.865823 -0.000302486 0)
(0.865819 -0.000302707 0)
(0.865815 -0.000302978 0)
(0.865812 -0.000303129 0)
(0.86581 -0.000303341 0)
(0.865808 -0.000303423 0)
(0.865806 -0.000303517 0)
(0.865805 -0.00030356 0)
(0.865804 -0.000303639 0)
(0.865803 -0.000303673 0)
(0.865803 -0.000303747 0)
(0.865802 -0.000303723 0)
(0.865802 -0.000303783 0)
(0.865802 -0.000303764 0)
(0.865802 -0.000303814 0)
(0.865801 -0.000303793 0)
(0.865801 -0.000303826 0)
(0.865801 -0.000303797 0)
(0.865801 -0.000303833 0)
(0.865801 -0.000303824 0)
(0.865801 -0.000303856 0)
(0.865801 -0.000303829 0)
(0.865801 -0.000303861 0)
(0.865801 -0.000303818 0)
(0.865801 -0.000303857 0)
(0.865801 -0.000303826 0)
(0.865801 -0.000303858 0)
(0.865801 -0.000303826 0)
(0.865801 -0.000303851 0)
(0.865801 -0.000303815 0)
(0.865801 -0.000303848 0)
(0.865801 -0.000303813 0)
(0.865801 -0.000303852 0)
(0.865801 -0.000303823 0)
(0.865801 -0.000303859 0)
(0.865801 -0.000303821 0)
(0.865801 -0.000303845 0)
(0.865801 -0.000303811 0)
(0.865801 -0.000303835 0)
(0.865801 -0.000303823 0)
(0.865801 -0.000303864 0)
(0.865801 -0.000303833 0)
(0.865801 -0.000303851 0)
(0.865801 -0.000303821 0)
(0.865801 -0.000303825 0)
(0.865801 -0.000303811 0)
(0.865801 -0.00030383 0)
(0.8658 -0.000303804 0)
(0.8658 -0.000303808 0)
(0.8658 -0.000303754 0)
(0.8658 -0.000303739 0)
(0.865799 -0.000303666 0)
(0.865799 -0.000303636 0)
(0.865798 -0.000303531 0)
(0.865796 -0.000303421 0)
(0.865795 -0.000303236 0)
(0.865792 -0.000302982 0)
(0.865788 -0.000302618 0)
(0.865783 -0.000302184 0)
(0.865776 -0.000301617 0)
(0.865766 -0.00030101 0)
(0.865754 -0.000300674 0)
(0.865742 -0.000300882 0)
(0.865723 -0.000301452 0)
(0.865717 -0.000293358 0)
(0.865545 -0.000239588 0)
(0.865252 -7.34837e-05 0)
(0.863186 -0.000219213 0)
(0.960317 0.135901 0)
(1.02533 0.0244331 0)
(0.976319 0.00334257 0)
(0.987406 0.000822684 0)
(0.9831 0.000101113 0)
(0.985005 0.00060636 0)
(0.983933 0.000612563 0)
(0.98384 0.000676928 0)
(0.983318 0.00062951 0)
(0.98304 0.000606255 0)
(0.982737 0.000572502 0)
(0.982514 0.000549489 0)
(0.982316 0.000528201 0)
(0.982155 0.000511705 0)
(0.982016 0.000498376 0)
(0.9819 0.000487728 0)
(0.9818 0.000478779 0)
(0.981715 0.000471414 0)
(0.981641 0.000465055 0)
(0.981578 0.000459631 0)
(0.981524 0.000454895 0)
(0.981477 0.000450837 0)
(0.981438 0.000447269 0)
(0.981404 0.00044428 0)
(0.981376 0.000441609 0)
(0.981352 0.000439382 0)
(0.981331 0.000437434 0)
(0.981315 0.000435826 0)
(0.981301 0.000434397 0)
(0.981289 0.000433226 0)
(0.98128 0.000432207 0)
(0.981272 0.000431404 0)
(0.981266 0.000430706 0)
(0.981261 0.000430231 0)
(0.981257 0.00042971 0)
(0.981253 0.000429398 0)
(0.981251 0.000429021 0)
(0.981249 0.000428843 0)
(0.981247 0.000428636 0)
(0.981246 0.000428527 0)
(0.981245 0.000428367 0)
(0.981244 0.000428311 0)
(0.981243 0.000428187 0)
(0.981243 0.000428203 0)
(0.981242 0.000428095 0)
(0.981242 0.00042811 0)
(0.981242 0.000428023 0)
(0.981242 0.000428049 0)
(0.981241 0.000427989 0)
(0.981241 0.000428018 0)
(0.981241 0.000427964 0)
(0.981241 0.000427984 0)
(0.981241 0.000427927 0)
(0.981241 0.000427971 0)
(0.981241 0.000427918 0)
(0.981241 0.000427981 0)
(0.981241 0.000427929 0)
(0.981241 0.000427975 0)
(0.981241 0.000427933 0)
(0.981241 0.000427986 0)
(0.981241 0.000427944 0)
(0.981241 0.000427999 0)
(0.981241 0.000427945 0)
(0.981241 0.000428 0)
(0.981241 0.000427941 0)
(0.981241 0.000427996 0)
(0.981241 0.000427943 0)
(0.981241 0.000427997 0)
(0.981241 0.000427955 0)
(0.981241 0.000428002 0)
(0.981241 0.000427962 0)
(0.981241 0.000427988 0)
(0.981241 0.000427934 0)
(0.981241 0.000427975 0)
(0.981241 0.000427947 0)
(0.981241 0.000427987 0)
(0.981241 0.000427971 0)
(0.981241 0.000428005 0)
(0.981241 0.000427986 0)
(0.98124 0.000428031 0)
(0.98124 0.000428031 0)
(0.98124 0.00042812 0)
(0.98124 0.000428156 0)
(0.981239 0.000428283 0)
(0.981239 0.000428367 0)
(0.981238 0.000428565 0)
(0.981236 0.000428781 0)
(0.981234 0.00042914 0)
(0.981232 0.000429614 0)
(0.981228 0.000430302 0)
(0.981223 0.000431164 0)
(0.981215 0.000432271 0)
(0.981206 0.000433563 0)
(0.981192 0.000434538 0)
(0.981178 0.000435195 0)
(0.981152 0.000436338 0)
(0.981132 0.000458736 0)
(0.980908 0.000569005 0)
(0.980542 0.000943025 0)
(0.977594 0.00117797 0)
(0.984967 0.12329 0)
(1.0595 0.028659 0)
(1.01375 0.00469023 0)
(1.02591 0.000697995 0)
(1.021 -0.000187953 0)
(1.02312 0.000440158 0)
(1.02201 0.000478944 0)
(1.02201 0.00056187 0)
(1.02153 0.000501223 0)
(1.02131 0.000467101 0)
(1.02104 0.000420245 0)
(1.02085 0.000387131 0)
(1.02068 0.000356835 0)
(1.02054 0.000333049 0)
(1.02042 0.000313801 0)
(1.02031 0.000298801 0)
(1.02023 0.00028622 0)
(1.02015 0.000275842 0)
(1.02009 0.000266885 0)
(1.02003 0.000259229 0)
(1.01998 0.000252533 0)
(1.01994 0.000246772 0)
(1.0199 0.000241686 0)
(1.01987 0.000237381 0)
(1.01985 0.000233535 0)
(1.01983 0.000230289 0)
(1.01981 0.000227436 0)
(1.01979 0.000225077 0)
(1.01978 0.000222999 0)
(1.01977 0.000221296 0)
(1.01976 0.000219809 0)
(1.01975 0.000218621 0)
(1.01975 0.000217578 0)
(1.01974 0.000216852 0)
(1.01974 0.000216101 0)
(1.01973 0.000215621 0)
(1.01973 0.000215088 0)
(1.01973 0.000214803 0)
(1.01973 0.000214486 0)
(1.01973 0.00021431 0)
(1.01972 0.000214075 0)
(1.01972 0.000213992 0)
(1.01972 0.000213819 0)
(1.01972 0.000213818 0)
(1.01972 0.000213669 0)
(1.01972 0.000213673 0)
(1.01972 0.000213555 0)
(1.01972 0.000213579 0)
(1.01972 0.000213494 0)
(1.01972 0.000213521 0)
(1.01972 0.000213451 0)
(1.01972 0.000213482 0)
(1.01972 0.000213402 0)
(1.01972 0.00021346 0)
(1.01972 0.00021339 0)
(1.01972 0.000213467 0)
(1.01972 0.000213408 0)
(1.01972 0.000213465 0)
(1.01972 0.000213415 0)
(1.01972 0.000213484 0)
(1.01972 0.000213427 0)
(1.01972 0.000213495 0)
(1.01972 0.000213423 0)
(1.01972 0.000213495 0)
(1.01972 0.000213423 0)
(1.01972 0.000213498 0)
(1.01972 0.000213433 0)
(1.01972 0.000213497 0)
(1.01972 0.000213442 0)
(1.01972 0.000213497 0)
(1.01972 0.000213444 0)
(1.01972 0.000213483 0)
(1.01972 0.000213418 0)
(1.01972 0.000213463 0)
(1.01972 0.000213426 0)
(1.01972 0.000213474 0)
(1.01972 0.000213453 0)
(1.01972 0.000213506 0)
(1.01972 0.00021349 0)
(1.01972 0.000213552 0)
(1.01972 0.000213557 0)
(1.01972 0.000213678 0)
(1.01972 0.000213738 0)
(1.01972 0.000213917 0)
(1.01972 0.000214056 0)
(1.01972 0.000214344 0)
(1.01972 0.000214662 0)
(1.01971 0.000215182 0)
(1.01971 0.000215864 0)
(1.01971 0.000216861 0)
(1.0197 0.00021814 0)
(1.0197 0.000219788 0)
(1.01969 0.000221834 0)
(1.01968 0.000223679 0)
(1.01966 0.000226068 0)
(1.01963 0.000230474 0)
(1.0196 0.000271446 0)
(1.01935 0.000444014 0)
(1.01899 0.00104955 0)
(1.01589 0.00176922 0)
(0.988572 0.109968 0)
(1.06795 0.0309656 0)
(1.0256 0.00569512 0)
(1.03851 0.000544375 0)
(1.03318 -0.00041083 0)
(1.03547 0.000294169 0)
(1.03434 0.000367013 0)
(1.03445 0.000461441 0)
(1.03402 0.000391965 0)
(1.03386 0.000348888 0)
(1.03364 0.000292082 0)
(1.03349 0.000251114 0)
(1.03334 0.000214078 0)
(1.03323 0.000184936 0)
(1.03313 0.000161271 0)
(1.03305 0.000142689 0)
(1.03298 0.000127079 0)
(1.03292 0.000114174 0)
(1.03286 0.000103019 0)
(1.03282 9.34509e-05 0)
(1.03278 8.50498e-05 0)
(1.03274 7.77813e-05 0)
(1.03271 7.13087e-05 0)
(1.03268 6.57566e-05 0)
(1.03266 6.07499e-05 0)
(1.03264 5.64414e-05 0)
(1.03263 5.2585e-05 0)
(1.03261 4.9426e-05 0)
(1.0326 4.67808e-05 0)
(1.03259 4.46106e-05 0)
(1.03258 4.27185e-05 0)
(1.03258 4.11907e-05 0)
(1.03257 3.98334e-05 0)
(1.03257 3.88738e-05 0)
(1.03256 3.79152e-05 0)
(1.03256 3.72912e-05 0)
(1.03256 3.66142e-05 0)
(1.03256 3.62315e-05 0)
(1.03255 3.58061e-05 0)
(1.03255 3.55642e-05 0)
(1.03255 3.52585e-05 0)
(1.03255 3.51498e-05 0)
(1.03255 3.49292e-05 0)
(1.03255 3.4911e-05 0)
(1.03255 3.47257e-05 0)
(1.03255 3.47197e-05 0)
(1.03255 3.45713e-05 0)
(1.03255 3.45895e-05 0)
(1.03255 3.44808e-05 0)
(1.03255 3.45031e-05 0)
(1.03255 3.442e-05 0)
(1.03255 3.44648e-05 0)
(1.03255 3.43653e-05 0)
(1.03255 3.44329e-05 0)
(1.03255 3.4348e-05 0)
(1.03255 3.44363e-05 0)
(1.03255 3.43693e-05 0)
(1.03255 3.44375e-05 0)
(1.03255 3.43802e-05 0)
(1.03255 3.44633e-05 0)
(1.03255 3.43909e-05 0)
(1.03255 3.44673e-05 0)
(1.03255 3.43796e-05 0)
(1.03255 3.44665e-05 0)
(1.03255 3.43854e-05 0)
(1.03255 3.44794e-05 0)
(1.03255 3.44076e-05 0)
(1.03255 3.44811e-05 0)
(1.03255 3.44099e-05 0)
(1.03255 3.44704e-05 0)
(1.03255 3.44055e-05 0)
(1.03255 3.4457e-05 0)
(1.03255 3.43846e-05 0)
(1.03255 3.44357e-05 0)
(1.03255 3.43877e-05 0)
(1.03255 3.4442e-05 0)
(1.03255 3.44147e-05 0)
(1.03255 3.44852e-05 0)
(1.03255 3.44745e-05 0)
(1.03255 3.45548e-05 0)
(1.03255 3.45632e-05 0)
(1.03255 3.47083e-05 0)
(1.03255 3.47902e-05 0)
(1.03255 3.50133e-05 0)
(1.03255 3.52021e-05 0)
(1.03254 3.55696e-05 0)
(1.03254 3.59781e-05 0)
(1.03254 3.66339e-05 0)
(1.03254 3.74905e-05 0)
(1.03254 3.87458e-05 0)
(1.03253 4.0386e-05 0)
(1.03253 4.25211e-05 0)
(1.03252 4.53169e-05 0)
(1.03251 4.81913e-05 0)
(1.03249 5.31774e-05 0)
(1.03246 6.22701e-05 0)
(1.03242 0.000123479 0)
(1.03218 0.000349108 0)
(1.03186 0.00116809 0)
(1.02902 0.00229696 0)
(0.986396 0.0982889 0)
(1.06823 0.0321909 0)
(1.02898 0.00651962 0)
(1.04245 0.000498458 0)
(1.03682 -0.000476475 0)
(1.03924 0.00027312 0)
(1.03811 0.000377496 0)
(1.03832 0.000477907 0)
(1.03795 0.000403782 0)
(1.03785 0.000354508 0)
(1.03767 0.000291607 0)
(1.03756 0.000245902 0)
(1.03745 0.000205296 0)
(1.03737 0.000173641 0)
(1.03729 0.00014736 0)
(1.03723 0.000126093 0)
(1.03717 0.000108195 0)
(1.03712 9.33825e-05 0)
(1.03708 8.05785e-05 0)
(1.03704 6.95879e-05 0)
(1.03701 5.99257e-05 0)
(1.03698 5.15553e-05 0)
(1.03696 4.40851e-05 0)
(1.03694 3.76464e-05 0)
(1.03692 3.18456e-05 0)
(1.0369 2.68349e-05 0)
(1.03689 2.23459e-05 0)
(1.03688 1.86481e-05 0)
(1.03687 1.5534e-05 0)
(1.03686 1.29754e-05 0)
(1.03685 1.07305e-05 0)
(1.03685 8.90863e-06 0)
(1.03684 7.27349e-06 0)
(1.03684 6.09866e-06 0)
(1.03684 4.95584e-06 0)
(1.03683 4.18738e-06 0)
(1.03683 3.37306e-06 0)
(1.03683 2.87979e-06 0)
(1.03683 2.33261e-06 0)
(1.03683 2.01735e-06 0)
(1.03683 1.63579e-06 0)
(1.03683 1.50375e-06 0)
(1.03683 1.2394e-06 0)
(1.03683 1.19906e-06 0)
(1.03682 9.86906e-07 0)
(1.03682 9.70964e-07 0)
(1.03682 8.02153e-07 0)
(1.03682 8.10849e-07 0)
(1.03682 6.78618e-07 0)
(1.03682 6.96265e-07 0)
(1.03682 5.98843e-07 0)
(1.03682 6.55931e-07 0)
(1.03682 5.41778e-07 0)
(1.03682 6.16033e-07 0)
(1.03682 5.21271e-07 0)
(1.03682 6.13662e-07 0)
(1.03682 5.41897e-07 0)
(1.03682 6.19902e-07 0)
(1.03682 5.56976e-07 0)
(1.03682 6.49644e-07 0)
(1.03682 5.64502e-07 0)
(1.03682 6.47266e-07 0)
(1.03682 5.45735e-07 0)
(1.03682 6.43573e-07 0)
(1.03682 5.58765e-07 0)
(1.03682 6.67461e-07 0)
(1.03682 5.92082e-07 0)
(1.03682 6.7218e-07 0)
(1.03682 5.90446e-07 0)
(1.03682 6.53655e-07 0)
(1.03682 5.7735e-07 0)
(1.03682 6.35462e-07 0)
(1.03682 5.57644e-07 0)
(1.03682 6.13131e-07 0)
(1.03682 5.56008e-07 0)
(1.03682 6.15251e-07 0)
(1.03682 5.86494e-07 0)
(1.03682 6.71113e-07 0)
(1.03682 6.65975e-07 0)
(1.03682 7.62843e-07 0)
(1.03682 7.76266e-07 0)
(1.03682 9.40385e-07 0)
(1.03682 1.03893e-06 0)
(1.03682 1.29753e-06 0)
(1.03682 1.52633e-06 0)
(1.03682 1.9673e-06 0)
(1.03682 2.47667e-06 0)
(1.03682 3.272e-06 0)
(1.03682 4.29305e-06 0)
(1.03682 5.77681e-06 0)
(1.03681 7.73367e-06 0)
(1.03681 1.03072e-05 0)
(1.0368 1.38341e-05 0)
(1.03679 1.78192e-05 0)
(1.03678 2.54807e-05 0)
(1.03674 3.92688e-05 0)
(1.0367 0.000119208 0)
(1.03647 0.000383768 0)
(1.03621 0.00139843 0)
(1.03382 0.00284675 0)
(0.9831 0.0876833 0)
(1.06611 0.032503 0)
(1.0296 0.00711041 0)
(1.04348 0.000474314 0)
(1.03764 -0.000490034 0)
(1.04017 0.000277961 0)
(1.03905 0.00041236 0)
(1.03935 0.000516679 0)
(1.03903 0.000440121 0)
(1.03899 0.000386056 0)
(1.03886 0.000318419 0)
(1.03879 0.000268678 0)
(1.03871 0.000224743 0)
(1.03865 0.000190433 0)
(1.0386 0.000161946 0)
(1.03855 0.000138821 0)
(1.03851 0.000119359 0)
(1.03848 0.000103256 0)
(1.03844 8.93479e-05 0)
(1.03842 7.74207e-05 0)
(1.03839 6.69461e-05 0)
(1.03837 5.78855e-05 0)
(1.03835 4.98175e-05 0)
(1.03834 4.28731e-05 0)
(1.03832 3.66648e-05 0)
(1.03831 3.13426e-05 0)
(1.0383 2.66163e-05 0)
(1.03829 2.26668e-05 0)
(1.03828 1.91862e-05 0)
(1.03828 1.63201e-05 0)
(1.03827 1.37907e-05 0)
(1.03827 1.17301e-05 0)
(1.03826 9.86607e-06 0)
(1.03826 8.5034e-06 0)
(1.03826 7.20444e-06 0)
(1.03826 6.30419e-06 0)
(1.03826 5.3626e-06 0)
(1.03825 4.76281e-06 0)
(1.03825 4.09357e-06 0)
(1.03825 3.72188e-06 0)
(1.03825 3.28653e-06 0)
(1.03825 3.13161e-06 0)
(1.03825 2.82919e-06 0)
(1.03825 2.76211e-06 0)
(1.03825 2.53162e-06 0)
(1.03825 2.50961e-06 0)
(1.03825 2.32798e-06 0)
(1.03825 2.32564e-06 0)
(1.03825 2.17137e-06 0)
(1.03825 2.18394e-06 0)
(1.03825 2.07278e-06 0)
(1.03825 2.13955e-06 0)
(1.03825 2.01528e-06 0)
(1.03825 2.09231e-06 0)
(1.03825 1.99114e-06 0)
(1.03825 2.08426e-06 0)
(1.03825 2.00929e-06 0)
(1.03825 2.09493e-06 0)
(1.03825 2.02739e-06 0)
(1.03825 2.1275e-06 0)
(1.03825 2.0339e-06 0)
(1.03825 2.12259e-06 0)
(1.03825 2.01057e-06 0)
(1.03825 2.11456e-06 0)
(1.03825 2.0278e-06 0)
(1.03825 2.14704e-06 0)
(1.03825 2.07254e-06 0)
(1.03825 2.15926e-06 0)
(1.03825 2.07112e-06 0)
(1.03825 2.13393e-06 0)
(1.03825 2.0457e-06 0)
(1.03825 2.10496e-06 0)
(1.03825 2.02296e-06 0)
(1.03825 2.08261e-06 0)
(1.03825 2.01935e-06 0)
(1.03825 2.08214e-06 0)
(1.03825 2.05332e-06 0)
(1.03825 2.14824e-06 0)
(1.03825 2.14803e-06 0)
(1.03825 2.26015e-06 0)
(1.03825 2.28063e-06 0)
(1.03825 2.45895e-06 0)
(1.03825 2.57086e-06 0)
(1.03825 2.85566e-06 0)
(1.03825 3.11341e-06 0)
(1.03825 3.60614e-06 0)
(1.03825 4.18815e-06 0)
(1.03825 5.11681e-06 0)
(1.03824 6.28611e-06 0)
(1.03824 7.96323e-06 0)
(1.03824 1.01874e-05 0)
(1.03824 1.31431e-05 0)
(1.03823 1.7357e-05 0)
(1.03822 2.24587e-05 0)
(1.03821 3.26021e-05 0)
(1.03818 5.05988e-05 0)
(1.03814 0.000146935 0)
(1.03794 0.000445995 0)
(1.03774 0.00162557 0)
(1.03587 0.00331284 0)
(0.980015 0.0779772 0)
(1.06349 0.0320492 0)
(1.02938 0.00745411 0)
(1.04357 0.000438311 0)
(1.03756 -0.000494718 0)
(1.04018 0.000273164 0)
(1.03906 0.000434237 0)
(1.03945 0.000540257 0)
(1.03918 0.000463501 0)
(1.0392 0.000406356 0)
(1.0391 0.000335859 0)
(1.03907 0.000283409 0)
(1.03902 0.000237188 0)
(1.03899 0.000200942 0)
(1.03895 0.00017096 0)
(1.03892 0.000146667 0)
(1.0389 0.000126213 0)
(1.03888 0.000109283 0)
(1.03886 9.46516e-05 0)
(1.03884 8.20934e-05 0)
(1.03882 7.10535e-05 0)
(1.03881 6.14895e-05 0)
(1.0388 5.29635e-05 0)
(1.03879 4.55999e-05 0)
(1.03878 3.90275e-05 0)
(1.03877 3.33842e-05 0)
(1.03876 2.83672e-05 0)
(1.03876 2.41495e-05 0)
(1.03875 2.0404e-05 0)
(1.03875 1.73207e-05 0)
(1.03874 1.45924e-05 0)
(1.03874 1.23692e-05 0)
(1.03874 1.03514e-05 0)
(1.03873 8.85933e-06 0)
(1.03873 7.45699e-06 0)
(1.03873 6.47473e-06 0)
(1.03873 5.46143e-06 0)
(1.03873 4.80731e-06 0)
(1.03873 4.08403e-06 0)
(1.03873 3.67865e-06 0)
(1.03873 3.19211e-06 0)
(1.03873 3.00676e-06 0)
(1.03873 2.67391e-06 0)
(1.03872 2.57927e-06 0)
(1.03872 2.33439e-06 0)
(1.03872 2.30802e-06 0)
(1.03872 2.11794e-06 0)
(1.03872 2.10724e-06 0)
(1.03872 1.93535e-06 0)
(1.03872 1.94174e-06 0)
(1.03872 1.81552e-06 0)
(1.03872 1.888e-06 0)
(1.03872 1.75877e-06 0)
(1.03872 1.83711e-06 0)
(1.03872 1.73256e-06 0)
(1.03872 1.82297e-06 0)
(1.03872 1.74495e-06 0)
(1.03872 1.83589e-06 0)
(1.03872 1.76607e-06 0)
(1.03872 1.87236e-06 0)
(1.03872 1.77445e-06 0)
(1.03872 1.86871e-06 0)
(1.03872 1.7496e-06 0)
(1.03872 1.8564e-06 0)
(1.03872 1.7684e-06 0)
(1.03872 1.89394e-06 0)
(1.03872 1.82187e-06 0)
(1.03872 1.91525e-06 0)
(1.03872 1.82547e-06 0)
(1.03872 1.88654e-06 0)
(1.03872 1.78603e-06 0)
(1.03872 1.84137e-06 0)
(1.03872 1.75489e-06 0)
(1.03872 1.81804e-06 0)
(1.03872 1.75231e-06 0)
(1.03872 1.81846e-06 0)
(1.03872 1.7906e-06 0)
(1.03872 1.89132e-06 0)
(1.03872 1.89401e-06 0)
(1.03872 2.01977e-06 0)
(1.03872 2.04956e-06 0)
(1.03872 2.24077e-06 0)
(1.03872 2.36382e-06 0)
(1.03872 2.66666e-06 0)
(1.03872 2.94322e-06 0)
(1.03872 3.48782e-06 0)
(1.03872 4.10288e-06 0)
(1.03872 5.08302e-06 0)
(1.03872 6.3221e-06 0)
(1.03872 8.1076e-06 0)
(1.03872 1.05094e-05 0)
(1.03872 1.37545e-05 0)
(1.03871 1.85602e-05 0)
(1.0387 2.47162e-05 0)
(1.03869 3.74685e-05 0)
(1.03867 5.97516e-05 0)
(1.03863 0.000170489 0)
(1.03847 0.000495879 0)
(1.03834 0.00179834 0)
(1.03701 0.00365045 0)
(0.977429 0.0691357 0)
(1.06097 0.0309908 0)
(1.02893 0.00757584 0)
(1.04334 0.000393708 0)
(1.03722 -0.000494228 0)
(1.0399 0.00025916 0)
(1.03879 0.000442018 0)
(1.03925 0.000547561 0)
(1.03903 0.000472621 0)
(1.0391 0.000414178 0)
(1.03904 0.000342849 0)
(1.03904 0.00028927 0)
(1.03902 0.00024215 0)
(1.03901 0.00020508 0)
(1.03899 0.000174469 0)
(1.03898 0.00014968 0)
(1.03897 0.000128791 0)
(1.03896 0.000111492 0)
(1.03895 9.65283e-05 0)
(1.03895 8.3667e-05 0)
(1.03894 7.23442e-05 0)
(1.03893 6.25124e-05 0)
(1.03893 5.37282e-05 0)
(1.03892 4.61138e-05 0)
(1.03891 3.93144e-05 0)
(1.03891 3.34633e-05 0)
(1.03891 2.8242e-05 0)
(1.0389 2.38387e-05 0)
(1.0389 1.99317e-05 0)
(1.0389 1.67189e-05 0)
(1.03889 1.38757e-05 0)
(1.03889 1.15634e-05 0)
(1.03889 9.46283e-06 0)
(1.03889 7.89899e-06 0)
(1.03889 6.44082e-06 0)
(1.03889 5.42322e-06 0)
(1.03889 4.38645e-06 0)
(1.03889 3.72117e-06 0)
(1.03888 2.99803e-06 0)
(1.03888 2.57528e-06 0)
(1.03888 2.05932e-06 0)
(1.03888 1.86061e-06 0)
(1.03888 1.50552e-06 0)
(1.03888 1.38389e-06 0)
(1.03888 1.12473e-06 0)
(1.03888 1.09341e-06 0)
(1.03888 8.90393e-07 0)
(1.03888 8.73665e-07 0)
(1.03888 6.89519e-07 0)
(1.03888 6.9018e-07 0)
(1.03888 5.48702e-07 0)
(1.03888 6.23694e-07 0)
(1.03888 4.92349e-07 0)
(1.03888 5.71279e-07 0)
(1.03888 4.64749e-07 0)
(1.03888 5.519e-07 0)
(1.03888 4.70582e-07 0)
(1.03888 5.64659e-07 0)
(1.03888 4.93831e-07 0)
(1.03888 6.05755e-07 0)
(1.03888 5.06167e-07 0)
(1.03888 6.06356e-07 0)
(1.03888 4.84283e-07 0)
(1.03888 5.92073e-07 0)
(1.03888 5.02768e-07 0)
(1.03888 6.30123e-07 0)
(1.03888 5.60003e-07 0)
(1.03888 6.59689e-07 0)
(1.03888 5.71483e-07 0)
(1.03888 6.31206e-07 0)
(1.03888 5.19146e-07 0)
(1.03888 5.67505e-07 0)
(1.03888 4.75626e-07 0)
(1.03888 5.40124e-07 0)
(1.03888 4.75432e-07 0)
(1.03888 5.45101e-07 0)
(1.03888 5.18831e-07 0)
(1.03888 6.2251e-07 0)
(1.03888 6.25412e-07 0)
(1.03888 7.62059e-07 0)
(1.03888 8.02215e-07 0)
(1.03888 1.01201e-06 0)
(1.03888 1.14839e-06 0)
(1.03888 1.46618e-06 0)
(1.03888 1.75254e-06 0)
(1.03888 2.31433e-06 0)
(1.03888 2.93616e-06 0)
(1.03888 3.90139e-06 0)
(1.03888 5.14403e-06 0)
(1.03888 6.96316e-06 0)
(1.03888 9.45809e-06 0)
(1.03888 1.28972e-05 0)
(1.03887 1.81741e-05 0)
(1.03887 2.52503e-05 0)
(1.03886 4.03738e-05 0)
(1.03884 6.64336e-05 0)
(1.03881 0.000188374 0)
(1.0387 0.000530151 0)
(1.03863 0.00191132 0)
(1.03784 0.00385959 0)
(0.975334 0.0610621 0)
(1.0587 0.0294548 0)
(1.02847 0.00750442 0)
(1.04304 0.000346949 0)
(1.03682 -0.000486893 0)
(1.03954 0.000239812 0)
(1.03844 0.000438591 0)
(1.03897 0.000541764 0)
(1.03879 0.000470244 0)
(1.03891 0.000412101 0)
(1.03888 0.000341731 0)
(1.03892 0.000288449 0)
(1.03892 0.00024168 0)
(1.03893 0.000204791 0)
(1.03893 0.000174345 0)
(1.03894 0.000149685 0)
(1.03894 0.000128884 0)
(1.03895 0.000111655 0)
(1.03895 9.67356e-05 0)
(1.03895 8.38956e-05 0)
(1.03895 7.25767e-05 0)
(1.03895 6.27297e-05 0)
(1.03895 5.39091e-05 0)
(1.03895 4.62445e-05 0)
(1.03895 3.9394e-05 0)
(1.03894 3.34958e-05 0)
(1.03894 2.82182e-05 0)
(1.03894 2.37491e-05 0)
(1.03894 1.97785e-05 0)
(1.03894 1.65138e-05 0)
(1.03894 1.36243e-05 0)
(1.03894 1.12818e-05 0)
(1.03894 9.14982e-06 0)
(1.03894 7.55306e-06 0)
(1.03894 6.06171e-06 0)
(1.03894 5.02525e-06 0)
(1.03894 3.97602e-06 0)
(1.03894 3.30538e-06 0)
(1.03894 2.57998e-06 0)
(1.03894 2.15612e-06 0)
(1.03894 1.64913e-06 0)
(1.03894 1.45824e-06 0)
(1.03894 1.09505e-06 0)
(1.03894 9.56248e-07 0)
(1.03894 6.88746e-07 0)
(1.03894 6.57668e-07 0)
(1.03894 4.52417e-07 0)
(1.03893 4.33835e-07 0)
(1.03893 2.43095e-07 0)
(1.03893 2.40774e-07 0)
(1.03893 8.29184e-08 0)
(1.03893 1.59174e-07 0)
(1.03893 2.50491e-08 0)
(1.03893 1.05729e-07 0)
(1.03893 -2.72337e-09 0)
(1.03893 8.32448e-08 0)
(1.03893 -2.84807e-09 0)
(1.03893 9.29161e-08 0)
(1.03893 2.09898e-08 0)
(1.03893 1.39732e-07 0)
(1.03893 3.81137e-08 0)
(1.03893 1.45212e-07 0)
(1.03893 2.44193e-08 0)
(1.03893 1.32218e-07 0)
(1.03893 4.24926e-08 0)
(1.03893 1.68198e-07 0)
(1.03893 9.64692e-08 0)
(1.03893 2.02607e-07 0)
(1.03893 1.15886e-07 0)
(1.03893 1.77104e-07 0)
(1.03893 5.41866e-08 0)
(1.03893 9.50056e-08 0)
(1.03893 -2.65574e-09 0)
(1.03893 5.93074e-08 0)
(1.03893 -8.1278e-10 0)
(1.03893 7.17632e-08 0)
(1.03893 4.74504e-08 0)
(1.03893 1.54205e-07 0)
(1.03893 1.54691e-07 0)
(1.03893 2.99053e-07 0)
(1.03893 3.48081e-07 0)
(1.03893 5.65361e-07 0)
(1.03893 7.06857e-07 0)
(1.03893 1.02849e-06 0)
(1.03893 1.31163e-06 0)
(1.03893 1.8438e-06 0)
(1.03893 2.44864e-06 0)
(1.03893 3.40151e-06 0)
(1.03893 4.63912e-06 0)
(1.03893 6.4642e-06 0)
(1.03893 9.00162e-06 0)
(1.03893 1.2559e-05 0)
(1.03893 1.81804e-05 0)
(1.03893 2.59915e-05 0)
(1.03892 4.30188e-05 0)
(1.03891 7.19819e-05 0)
(1.03889 0.000201291 0)
(1.03882 0.000549786 0)
(1.03882 0.00196679 0)
(1.03856 0.00394848 0)
(0.973652 0.0536357 0)
(1.05672 0.0275347 0)
(1.02804 0.00726379 0)
(1.04273 0.000301112 0)
(1.03644 -0.000472356 0)
(1.03919 0.000216997 0)
(1.0381 0.000425183 0)
(1.03868 0.000524309 0)
(1.03854 0.000457443 0)
(1.0387 0.000400997 0)
(1.03871 0.00033312 0)
(1.03877 0.000281372 0)
(1.03879 0.000236028 0)
(1.03882 0.000200185 0)
(1.03885 0.000170603 0)
(1.03887 0.000146634 0)
(1.03888 0.000126396 0)
(1.03889 0.000109633 0)
(1.03891 9.51013e-05 0)
(1.03891 8.25807e-05 0)
(1.03892 7.15283e-05 0)
(1.03893 6.19027e-05 0)
(1.03893 5.32531e-05 0)
(1.03894 4.57263e-05 0)
(1.03894 3.89874e-05 0)
(1.03894 3.31901e-05 0)
(1.03895 2.79938e-05 0)
(1.03895 2.3577e-05 0)
(1.03895 1.96393e-05 0)
(1.03895 1.63998e-05 0)
(1.03895 1.35289e-05 0)
(1.03895 1.12136e-05 0)
(1.03895 9.09937e-06 0)
(1.03895 7.50979e-06 0)
(1.03895 6.01031e-06 0)
(1.03895 4.97432e-06 0)
(1.03895 3.9256e-06 0)
(1.03895 3.25632e-06 0)
(1.03895 2.52849e-06 0)
(1.03895 2.10858e-06 0)
(1.03895 1.60063e-06 0)
(1.03895 1.41404e-06 0)
(1.03895 1.05499e-06 0)
(1.03895 9.12208e-07 0)
(1.03895 6.42612e-07 0)
(1.03895 6.1606e-07 0)
(1.03895 4.18703e-07 0)
(1.03895 4.01946e-07 0)
(1.03895 2.10856e-07 0)
(1.03895 2.10227e-07 0)
(1.03895 4.01671e-08 0)
(1.03895 1.14051e-07 0)
(1.03895 -2.23765e-08 0)
(1.03895 6.07672e-08 0)
(1.03895 -4.87799e-08 0)
(1.03895 3.72458e-08 0)
(1.03895 -5.25787e-08 0)
(1.03895 4.24402e-08 0)
(1.03895 -3.05208e-08 0)
(1.03895 9.38259e-08 0)
(1.03895 -8.96831e-09 0)
(1.03895 1.04748e-07 0)
(1.03895 -1.23926e-08 0)
(1.03895 9.79271e-08 0)
(1.03895 7.48539e-09 0)
(1.03895 1.30039e-07 0)
(1.03895 5.34706e-08 0)
(1.03895 1.62447e-07 0)
(1.03895 7.80899e-08 0)
(1.03895 1.4126e-07 0)
(1.03895 1.18411e-08 0)
(1.03895 4.61199e-08 0)
(1.03895 -5.95814e-08 0)
(1.03895 -1.44387e-09 0)
(1.03895 -5.82126e-08 0)
(1.03895 1.9745e-08 0)
(1.03895 -2.3128e-09 0)
(1.03895 1.05973e-07 0)
(1.03895 1.01883e-07 0)
(1.03895 2.48985e-07 0)
(1.03895 3.03177e-07 0)
(1.03895 5.15256e-07 0)
(1.03895 6.52667e-07 0)
(1.03895 9.6774e-07 0)
(1.03895 1.23821e-06 0)
(1.03895 1.75221e-06 0)
(1.03895 2.34168e-06 0)
(1.03895 3.28331e-06 0)
(1.03895 4.50496e-06 0)
(1.03895 6.30837e-06 0)
(1.03895 8.83663e-06 0)
(1.03896 1.24312e-05 0)
(1.03896 1.82484e-05 0)
(1.03896 2.65592e-05 0)
(1.03895 4.49052e-05 0)
(1.03895 7.57455e-05 0)
(1.03893 0.000208378 0)
(1.03892 0.000554478 0)
(1.03898 0.00196661 0)
(1.03921 0.00392515 0)
(0.972303 0.0467494 0)
(1.055 0.0253034 0)
(1.02767 0.00687476 0)
(1.04245 0.000257625 0)
(1.0361 -0.000450513 0)
(1.03886 0.000192036 0)
(1.03777 0.000402727 0)
(1.03841 0.000496257 0)
(1.0383 0.000434985 0)
(1.03849 0.000381459 0)
(1.03853 0.000317402 0)
(1.03862 0.000268278 0)
(1.03867 0.000225303 0)
(1.03871 0.00019127 0)
(1.03875 0.000163174 0)
(1.03879 0.000140401 0)
(1.03881 0.000121149 0)
(1.03884 0.000105209 0)
(1.03886 9.13718e-05 0)
(1.03887 7.94393e-05 0)
(1.03889 6.88904e-05 0)
(1.0389 5.97022e-05 0)
(1.03891 5.14145e-05 0)
(1.03892 4.41967e-05 0)
(1.03893 3.77173e-05 0)
(1.03893 3.2151e-05 0)
(1.03894 2.7159e-05 0)
(1.03894 2.29052e-05 0)
(1.03895 1.90958e-05 0)
(1.03895 1.59594e-05 0)
(1.03895 1.31715e-05 0)
(1.03895 1.09403e-05 0)
(1.03895 8.89494e-06 0)
(1.03895 7.3576e-06 0)
(1.03896 5.88426e-06 0)
(1.03896 4.87652e-06 0)
(1.03896 3.85202e-06 0)
(1.03896 3.20087e-06 0)
(1.03896 2.48637e-06 0)
(1.03896 2.08198e-06 0)
(1.03896 1.57744e-06 0)
(1.03896 1.39804e-06 0)
(1.03896 1.04968e-06 0)
(1.03896 9.1225e-07 0)
(1.03896 6.40567e-07 0)
(1.03896 6.15351e-07 0)
(1.03896 4.1808e-07 0)
(1.03896 4.03952e-07 0)
(1.03896 2.17762e-07 0)
(1.03896 2.24063e-07 0)
(1.03896 4.80628e-08 0)
(1.03896 1.16027e-07 0)
(1.03896 -2.18796e-08 0)
(1.03896 6.32028e-08 0)
(1.03896 -4.57723e-08 0)
(1.03896 4.05837e-08 0)
(1.03896 -5.05773e-08 0)
(1.03896 4.15856e-08 0)
(1.03896 -3.18345e-08 0)
(1.03896 9.54135e-08 0)
(1.03896 -7.03931e-09 0)
(1.03896 1.11492e-07 0)
(1.03896 -5.85869e-10 0)
(1.03896 1.15991e-07 0)
(1.03896 2.42891e-08 0)
(1.03896 1.4366e-07 0)
(1.03896 6.08766e-08 0)
(1.03896 1.67093e-07 0)
(1.03896 8.53818e-08 0)
(1.03896 1.49813e-07 0)
(1.03896 1.92894e-08 0)
(1.03896 4.84367e-08 0)
(1.03896 -6.67813e-08 0)
(1.03896 -1.32849e-08 0)
(1.03896 -6.95695e-08 0)
(1.03896 1.64192e-08 0)
(1.03896 -3.2852e-09 0)
(1.03896 1.0515e-07 0)
(1.03896 9.57257e-08 0)
(1.03896 2.40443e-07 0)
(1.03896 2.95668e-07 0)
(1.03896 5.06498e-07 0)
(1.03896 6.40766e-07 0)
(1.03896 9.49284e-07 0)
(1.03896 1.20383e-06 0)
(1.03896 1.69728e-06 0)
(1.03896 2.26101e-06 0)
(1.03896 3.17263e-06 0)
(1.03896 4.35092e-06 0)
(1.03896 6.0934e-06 0)
(1.03896 8.55184e-06 0)
(1.03896 1.2092e-05 0)
(1.03897 1.79356e-05 0)
(1.03897 2.64713e-05 0)
(1.03897 4.54738e-05 0)
(1.03897 7.70865e-05 0)
(1.03897 0.000208965 0)
(1.03901 0.000544064 0)
(1.03912 0.00191337 0)
(1.03982 0.0037982 0)
(0.971223 0.0403138 0)
(1.05353 0.0228198 0)
(1.02736 0.00635643 0)
(1.04219 0.000217262 0)
(1.0358 -0.000421144 0)
(1.03856 0.000166178 0)
(1.03748 0.000372365 0)