/*--------------------------------*- C++ -*----------------------------------*\
| =========                 |                                                 |
| \\      /  F ield         | OpenFOAM: The Open Source CFD Toolbox           |
|  \\    /   O peration     | Version:  v1906                                 |
|   \\  /    A nd           | Web:      www.OpenFOAM.com                      |
|    \\/     M anipulation  |                                                 |
\*---------------------------------------------------------------------------*/
FoamFile
{
    version     2.0;
    format      ascii;
    class       volVectorField;
    location    "1.5";
    object      U;
}
// * * * * * * * * * * * * * * * * * * * * * * * * * * * * * * * * * * * * * //

dimensions      [0 1 -1 0 0 0 0];


internalField   nonuniform List<vector> 
4000
(
(0.427058 0.0732088 0)
(0.418083 0.00685352 0)
(0.375377 -0.000524482 0)
(0.378994 -0.00107163 0)
(0.37776 -0.00130998 0)
(0.378954 -0.00121027 0)
(0.378716 -0.00120154 0)
(0.378663 -0.00117691 0)
(0.378374 -0.0011797 0)
(0.378162 -0.00118028 0)
(0.377949 -0.00118461 0)
(0.377779 -0.00118752 0)
(0.377632 -0.00119055 0)
(0.37751 -0.00119288 0)
(0.377406 -0.00119487 0)
(0.377319 -0.00119647 0)
(0.377245 -0.00119782 0)
(0.377183 -0.00119894 0)
(0.37713 -0.0011999 0)
(0.377085 -0.00120069 0)
(0.377047 -0.00120134 0)
(0.377016 -0.00120188 0)
(0.376989 -0.00120236 0)
(0.376967 -0.00120277 0)
(0.376948 -0.00120312 0)
(0.376933 -0.00120343 0)
(0.376921 -0.00120366 0)
(0.376911 -0.00120388 0)
(0.376902 -0.00120402 0)
(0.376896 -0.00120416 0)
(0.37689 -0.00120427 0)
(0.376886 -0.00120438 0)
(0.376883 -0.00120446 0)
(0.37688 -0.00120452 0)
(0.376878 -0.00120457 0)
(0.376876 -0.0012046 0)
(0.376875 -0.00120462 0)
(0.376874 -0.00120466 0)
(0.376873 -0.00120468 0)
(0.376873 -0.00120471 0)
(0.376872 -0.00120471 0)
(0.376872 -0.00120472 0)
(0.376872 -0.00120472 0)
(0.376871 -0.00120472 0)
(0.376871 -0.00120473 0)
(0.376871 -0.00120474 0)
(0.376871 -0.00120473 0)
(0.376871 -0.00120474 0)
(0.376871 -0.00120473 0)
(0.376871 -0.00120474 0)
(0.376871 -0.00120473 0)
(0.376871 -0.00120474 0)
(0.376871 -0.00120473 0)
(0.376871 -0.00120474 0)
(0.376871 -0.00120473 0)
(0.376871 -0.00120473 0)
(0.376871 -0.00120473 0)
(0.376871 -0.00120474 0)
(0.376871 -0.00120474 0)
(0.376871 -0.00120475 0)
(0.376871 -0.00120474 0)
(0.376871 -0.00120474 0)
(0.376871 -0.00120473 0)
(0.376871 -0.00120474 0)
(0.376871 -0.00120474 0)
(0.376871 -0.00120474 0)
(0.376871 -0.00120474 0)
(0.376871 -0.00120475 0)
(0.376871 -0.00120474 0)
(0.376871 -0.00120474 0)
(0.376871 -0.00120474 0)
(0.376871 -0.00120474 0)
(0.376871 -0.00120474 0)
(0.376871 -0.00120474 0)
(0.376871 -0.00120473 0)
(0.376871 -0.00120474 0)
(0.376871 -0.00120473 0)
(0.376871 -0.00120473 0)
(0.376871 -0.00120473 0)
(0.376871 -0.00120473 0)
(0.376871 -0.00120472 0)
(0.376871 -0.00120472 0)
(0.37687 -0.00120471 0)
(0.37687 -0.00120471 0)
(0.37687 -0.00120469 0)
(0.37687 -0.00120467 0)
(0.376869 -0.00120463 0)
(0.376868 -0.00120459 0)
(0.376866 -0.00120453 0)
(0.376864 -0.00120445 0)
(0.376861 -0.00120435 0)
(0.376858 -0.00120426 0)
(0.376853 -0.0012042 0)
(0.376847 -0.00120432 0)
(0.376845 -0.00120471 0)
(0.376839 -0.00120465 0)
(0.376839 -0.00120166 0)
(0.37671 -0.00118546 0)
(0.376552 -0.00116682 0)
(0.376217 -0.00130297 0)
(0.789025 0.171997 0)
(0.802456 0.0240843 0)
(0.735251 0.00283798 0)
(0.741176 8.23631e-05 0)
(0.738271 -0.000770352 0)
(0.740424 -0.000457966 0)
(0.739988 -0.000394593 0)
(0.739953 -0.000302305 0)
(0.739465 -0.000304272 0)
(0.739113 -0.000305856 0)
(0.738746 -0.000320763 0)
(0.738455 -0.000332455 0)
(0.738199 -0.000344292 0)
(0.737987 -0.000353531 0)
(0.737806 -0.000361403 0)
(0.737654 -0.00036788 0)
(0.737524 -0.000373454 0)
(0.737415 -0.000378116 0)
(0.737321 -0.000382115 0)
(0.737242 -0.00038548 0)
(0.737174 -0.000388351 0)
(0.737117 -0.000390769 0)
(0.73707 -0.000392885 0)
(0.73703 -0.000394749 0)
(0.736996 -0.000396297 0)
(0.736969 -0.000397679 0)
(0.736946 -0.000398759 0)
(0.736927 -0.00039972 0)
(0.736912 -0.00040045 0)
(0.736899 -0.000401096 0)
(0.736889 -0.000401644 0)
(0.736881 -0.000402102 0)
(0.736875 -0.000402478 0)
(0.73687 -0.000402768 0)
(0.736866 -0.000402989 0)
(0.736862 -0.000403179 0)
(0.73686 -0.000403301 0)
(0.736858 -0.000403448 0)
(0.736857 -0.000403531 0)
(0.736856 -0.000403636 0)
(0.736855 -0.000403663 0)
(0.736854 -0.000403701 0)
(0.736854 -0.000403707 0)
(0.736853 -0.000403741 0)
(0.736853 -0.000403753 0)
(0.736853 -0.000403782 0)
(0.736852 -0.000403775 0)
(0.736852 -0.000403796 0)
(0.736852 -0.000403787 0)
(0.736852 -0.000403819 0)
(0.736852 -0.000403806 0)
(0.736852 -0.000403827 0)
(0.736852 -0.000403809 0)
(0.736852 -0.000403821 0)
(0.736852 -0.000403798 0)
(0.736852 -0.00040381 0)
(0.736852 -0.000403804 0)
(0.736852 -0.000403828 0)
(0.736852 -0.000403821 0)
(0.736852 -0.000403839 0)
(0.736852 -0.00040382 0)
(0.736852 -0.000403831 0)
(0.736852 -0.000403809 0)
(0.736852 -0.000403827 0)
(0.736852 -0.000403816 0)
(0.736852 -0.000403834 0)
(0.736852 -0.000403822 0)
(0.736852 -0.000403834 0)
(0.736852 -0.000403817 0)
(0.736852 -0.000403823 0)
(0.736852 -0.000403806 0)
(0.736852 -0.000403819 0)
(0.736852 -0.000403804 0)
(0.736852 -0.000403814 0)
(0.736852 -0.0004038 0)
(0.736852 -0.00040381 0)
(0.736852 -0.000403794 0)
(0.736852 -0.000403799 0)
(0.736852 -0.000403784 0)
(0.736852 -0.000403791 0)
(0.736852 -0.000403773 0)
(0.736852 -0.000403767 0)
(0.736851 -0.000403733 0)
(0.736851 -0.000403704 0)
(0.73685 -0.00040364 0)
(0.73685 -0.000403563 0)
(0.736848 -0.00040343 0)
(0.736847 -0.000403265 0)
(0.736844 -0.000403023 0)
(0.73684 -0.000402723 0)
(0.736835 -0.000402317 0)
(0.736828 -0.000401899 0)
(0.73682 -0.000401559 0)
(0.736809 -0.000401745 0)
(0.736802 -0.000402248 0)
(0.736783 -0.000400164 0)
(0.736763 -0.000382633 0)
(0.736485 -0.000315995 0)
(0.736102 -0.00021298 0)
(0.734293 -0.000457858 0)
(0.938119 0.195346 0)
(0.975044 0.0389516 0)
(0.907005 0.00767956 0)
(0.914222 0.00116759 0)
(0.910137 -0.000439878 0)
(0.91266 9.11729e-06 0)
(0.912101 0.000173 0)
(0.912131 0.000349329 0)
(0.911601 0.000358515 0)
(0.911238 0.000354424 0)
(0.910842 0.000324902 0)
(0.910531 0.000299842 0)
(0.910255 0.000275547 0)
(0.910027 0.000256576 0)
(0.909831 0.00024046 0)
(0.909666 0.000227094 0)
(0.909525 0.000215777 0)
(0.909405 0.000206314 0)
(0.909302 0.000198197 0)
(0.909215 0.000191334 0)
(0.909141 0.000185421 0)
(0.909078 0.00018041 0)
(0.909024 0.000176022 0)
(0.90898 0.000172169 0)
(0.908942 0.000168964 0)
(0.908911 0.000166109 0)
(0.908885 0.000163839 0)
(0.908864 0.000161818 0)
(0.908846 0.000160226 0)
(0.908832 0.00015884 0)
(0.90882 0.000157677 0)
(0.908811 0.000156726 0)
(0.908803 0.000155936 0)
(0.908797 0.000155316 0)
(0.908792 0.000154818 0)
(0.908789 0.000154388 0)
(0.908786 0.000154092 0)
(0.908784 0.000153785 0)
(0.908782 0.000153611 0)
(0.908781 0.000153417 0)
(0.90878 0.00015335 0)
(0.908779 0.000153265 0)
(0.908778 0.000153235 0)
(0.908778 0.000153173 0)
(0.908777 0.000153147 0)
(0.908777 0.000153096 0)
(0.908777 0.000153094 0)
(0.908776 0.000153043 0)
(0.908776 0.000153045 0)
(0.908776 0.000152986 0)
(0.908776 0.000153001 0)
(0.908776 0.000152963 0)
(0.908776 0.000152987 0)
(0.908776 0.000152967 0)
(0.908776 0.000153 0)
(0.908776 0.000152983 0)
(0.908776 0.000152998 0)
(0.908776 0.000152967 0)
(0.908776 0.000152984 0)
(0.908776 0.000152956 0)
(0.908776 0.000152982 0)
(0.908776 0.000152957 0)
(0.908776 0.000152987 0)
(0.908776 0.000152957 0)
(0.908776 0.000152976 0)
(0.908776 0.000152952 0)
(0.908777 0.000152977 0)
(0.908777 0.000152964 0)
(0.908777 0.000152995 0)
(0.908776 0.000152985 0)
(0.908776 0.000153013 0)
(0.908776 0.000152995 0)
(0.908776 0.000153019 0)
(0.908776 0.000153002 0)
(0.908776 0.000153022 0)
(0.908776 0.000153004 0)
(0.908776 0.000153026 0)
(0.908776 0.000153016 0)
(0.908776 0.000153038 0)
(0.908776 0.00015303 0)
(0.908776 0.000153063 0)
(0.908776 0.000153081 0)
(0.908775 0.000153147 0)
(0.908775 0.000153212 0)
(0.908774 0.000153341 0)
(0.908773 0.000153502 0)
(0.908772 0.000153766 0)
(0.90877 0.000154106 0)
(0.908767 0.000154601 0)
(0.908763 0.000155229 0)
(0.908758 0.000156077 0)
(0.90875 0.000156977 0)
(0.90874 0.000157811 0)
(0.908727 0.000157827 0)
(0.908716 0.000158245 0)
(0.908686 0.000165067 0)
(0.908646 0.000210324 0)
(0.908279 0.000360041 0)
(0.907752 0.000653235 0)
(0.904637 0.000606956 0)
(0.996185 0.187104 0)
(1.04998 0.0487172 0)
(0.988515 0.0120555 0)
(0.996762 0.00171761 0)
(0.99191 -0.000560359 0)
(0.994558 -6.94305e-05 0)
(0.993906 0.000207615 0)
(0.994013 0.000462683 0)
(0.993508 0.000489121 0)
(0.993189 0.000482561 0)
(0.992821 0.000439763 0)
(0.992536 0.000402119 0)
(0.99228 0.000365941 0)
(0.992069 0.000336796 0)
(0.991887 0.000311877 0)
(0.991734 0.000291056 0)
(0.991602 0.000274116 0)
(0.99149 0.000259949 0)
(0.991394 0.000247787 0)
(0.991311 0.000237447 0)
(0.991241 0.000228487 0)
(0.991181 0.000220837 0)
(0.99113 0.000214173 0)
(0.991087 0.000208359 0)
(0.99105 0.000203505 0)
(0.99102 0.000199187 0)
(0.990995 0.000195708 0)
(0.990974 0.000192621 0)
(0.990956 0.000190143 0)
(0.990942 0.000187998 0)
(0.990931 0.000186209 0)
(0.990921 0.000184751 0)
(0.990914 0.00018353 0)
(0.990908 0.000182553 0)
(0.990903 0.000181756 0)
(0.990899 0.000181065 0)
(0.990896 0.000180578 0)
(0.990894 0.000180103 0)
(0.990892 0.000179832 0)
(0.990891 0.000179547 0)
(0.99089 0.00017943 0)
(0.990889 0.000179295 0)
(0.990888 0.000179238 0)
(0.990888 0.00017915 0)
(0.990887 0.000179109 0)
(0.990887 0.000179032 0)
(0.990886 0.000179015 0)
(0.990886 0.00017893 0)
(0.990886 0.000178921 0)
(0.990886 0.000178834 0)
(0.990886 0.000178848 0)
(0.990886 0.000178795 0)
(0.990886 0.000178826 0)
(0.990886 0.000178799 0)
(0.990886 0.000178845 0)
(0.990886 0.000178825 0)
(0.990886 0.000178852 0)
(0.990886 0.000178816 0)
(0.990886 0.00017884 0)
(0.990886 0.0001788 0)
(0.990886 0.000178827 0)
(0.990886 0.000178788 0)
(0.990886 0.000178823 0)
(0.990886 0.000178785 0)
(0.990886 0.000178814 0)
(0.990886 0.000178788 0)
(0.990886 0.000178826 0)
(0.990886 0.000178814 0)
(0.990886 0.000178856 0)
(0.990886 0.000178841 0)
(0.990886 0.000178879 0)
(0.990886 0.000178857 0)
(0.990886 0.000178889 0)
(0.990886 0.000178865 0)
(0.990886 0.000178891 0)
(0.990886 0.000178866 0)
(0.990886 0.000178894 0)
(0.990886 0.000178879 0)
(0.990886 0.00017891 0)
(0.990886 0.000178902 0)
(0.990886 0.00017895 0)
(0.990885 0.000178983 0)
(0.990885 0.000179082 0)
(0.990885 0.000179185 0)
(0.990884 0.000179382 0)
(0.990883 0.000179632 0)
(0.990882 0.000180032 0)
(0.99088 0.000180556 0)
(0.990877 0.000181317 0)
(0.990873 0.000182294 0)
(0.990868 0.000183612 0)
(0.990861 0.000185048 0)
(0.990851 0.000186533 0)
(0.990838 0.000187111 0)
(0.990824 0.000189577 0)
(0.990785 0.00020312 0)
(0.99073 0.000283727 0)
(0.990321 0.000530305 0)
(0.989739 0.00109574 0)
(0.985951 0.00141741 0)
(1.01561 0.170944 0)
(1.07996 0.0545047 0)
(1.02684 0.0154867 0)
(1.03597 0.00206003 0)
(1.03067 -0.000747162 0)
(1.03333 -0.000265427 0)
(1.0326 0.000117966 0)
(1.03279 0.000433252 0)
(1.03233 0.000476901 0)
(1.03208 0.000468569 0)
(1.03177 0.000417016 0)
(1.03153 0.000370139 0)
(1.03131 0.000325009 0)
(1.03113 0.000287677 0)
(1.03098 0.00025582 0)
(1.03085 0.000229142 0)
(1.03073 0.00020724 0)
(1.03064 0.000188824 0)
(1.03055 0.000172945 0)
(1.03048 0.000159327 0)
(1.03042 0.000147414 0)
(1.03037 0.000137107 0)
(1.03032 0.000128267 0)
(1.03028 0.000120715 0)
(1.03025 0.000114379 0)
(1.03022 0.000108737 0)
(1.0302 0.000104142 0)
(1.03018 0.000100063 0)
(1.03017 9.67679e-05 0)
(1.03015 9.39354e-05 0)
(1.03014 9.15809e-05 0)
(1.03013 8.96564e-05 0)
(1.03013 8.80376e-05 0)
(1.03012 8.67211e-05 0)
(1.03012 8.56436e-05 0)
(1.03011 8.47113e-05 0)
(1.03011 8.4042e-05 0)
(1.03011 8.34079e-05 0)
(1.03011 8.30393e-05 0)
(1.03011 8.26678e-05 0)
(1.0301 8.25021e-05 0)
(1.0301 8.23184e-05 0)
(1.0301 8.22372e-05 0)
(1.0301 8.21246e-05 0)
(1.0301 8.20681e-05 0)
(1.0301 8.19628e-05 0)
(1.0301 8.19279e-05 0)
(1.0301 8.18099e-05 0)
(1.0301 8.17884e-05 0)
(1.0301 8.16771e-05 0)
(1.0301 8.16895e-05 0)
(1.0301 8.16247e-05 0)
(1.0301 8.16633e-05 0)
(1.0301 8.16332e-05 0)
(1.0301 8.16897e-05 0)
(1.0301 8.16687e-05 0)
(1.0301 8.17054e-05 0)
(1.0301 8.16655e-05 0)
(1.0301 8.16933e-05 0)
(1.0301 8.16401e-05 0)
(1.0301 8.16672e-05 0)
(1.0301 8.16141e-05 0)
(1.0301 8.16548e-05 0)
(1.0301 8.16108e-05 0)
(1.0301 8.16499e-05 0)
(1.0301 8.16227e-05 0)
(1.0301 8.16732e-05 0)
(1.0301 8.16621e-05 0)
(1.0301 8.17132e-05 0)
(1.0301 8.16952e-05 0)
(1.0301 8.17413e-05 0)
(1.0301 8.17155e-05 0)
(1.0301 8.17542e-05 0)
(1.0301 8.17246e-05 0)
(1.0301 8.17545e-05 0)
(1.0301 8.17248e-05 0)
(1.0301 8.17579e-05 0)
(1.0301 8.17401e-05 0)
(1.0301 8.17782e-05 0)
(1.0301 8.17723e-05 0)
(1.0301 8.18346e-05 0)
(1.0301 8.18806e-05 0)
(1.0301 8.20099e-05 0)
(1.0301 8.2149e-05 0)
(1.0301 8.24067e-05 0)
(1.0301 8.27369e-05 0)
(1.0301 8.32593e-05 0)
(1.0301 8.39486e-05 0)
(1.03009 8.49479e-05 0)
(1.03009 8.62388e-05 0)
(1.03009 8.79854e-05 0)
(1.03008 8.99403e-05 0)
(1.03007 9.21601e-05 0)
(1.03006 9.36295e-05 0)
(1.03004 9.90703e-05 0)
(1.03 0.000120592 0)
(1.02994 0.00023993 0)
(1.02952 0.000575282 0)
(1.02896 0.00144288 0)
(1.02509 0.00215099 0)
(1.01909 0.153475 0)
(1.08945 0.0575327 0)
(1.04455 0.0180261 0)
(1.05443 0.00236459 0)
(1.04889 -0.000844179 0)
(1.05153 -0.000404623 0)
(1.05074 7.25486e-05 0)
(1.05099 0.000430627 0)
(1.0506 0.000490058 0)
(1.05043 0.000480507 0)
(1.05017 0.000422468 0)
(1.04999 0.000368166 0)
(1.04981 0.000316285 0)
(1.04967 0.000273252 0)
(1.04955 0.000236841 0)
(1.04944 0.00020642 0)
(1.04935 0.000180709 0)
(1.04928 0.000159029 0)
(1.04921 0.000140331 0)
(1.04915 0.000124255 0)
(1.0491 0.00011018 0)
(1.04906 9.79682e-05 0)
(1.04902 8.74401e-05 0)
(1.04899 7.8382e-05 0)
(1.04896 7.07147e-05 0)
(1.04894 6.38495e-05 0)
(1.04892 5.81657e-05 0)
(1.0489 5.30806e-05 0)
(1.04889 4.90003e-05 0)
(1.04888 4.55628e-05 0)
(1.04887 4.2709e-05 0)
(1.04886 4.03585e-05 0)
(1.04885 3.83789e-05 0)
(1.04885 3.67577e-05 0)
(1.04884 3.54348e-05 0)
(1.04884 3.42927e-05 0)
(1.04884 3.34627e-05 0)
(1.04884 3.2688e-05 0)
(1.04884 3.2229e-05 0)
(1.04883 3.17778e-05 0)
(1.04883 3.15653e-05 0)
(1.04883 3.13371e-05 0)
(1.04883 3.12337e-05 0)
(1.04883 3.10976e-05 0)
(1.04883 3.10274e-05 0)
(1.04883 3.0894e-05 0)
(1.04883 3.08412e-05 0)
(1.04883 3.06936e-05 0)
(1.04883 3.06612e-05 0)
(1.04883 3.05292e-05 0)
(1.04883 3.05398e-05 0)
(1.04883 3.04652e-05 0)
(1.04883 3.05118e-05 0)
(1.04883 3.04787e-05 0)
(1.04883 3.05451e-05 0)
(1.04883 3.05222e-05 0)
(1.04883 3.05681e-05 0)
(1.04883 3.0523e-05 0)
(1.04883 3.05534e-05 0)
(1.04883 3.04879e-05 0)
(1.04883 3.05141e-05 0)
(1.04883 3.04487e-05 0)
(1.04883 3.04944e-05 0)
(1.04883 3.04465e-05 0)
(1.04883 3.04954e-05 0)
(1.04883 3.04671e-05 0)
(1.04883 3.05282e-05 0)
(1.04883 3.05174e-05 0)
(1.04883 3.05773e-05 0)
(1.04883 3.05557e-05 0)
(1.04883 3.0609e-05 0)
(1.04883 3.05802e-05 0)
(1.04883 3.06244e-05 0)
(1.04883 3.05894e-05 0)
(1.04883 3.06233e-05 0)
(1.04883 3.05892e-05 0)
(1.04883 3.06272e-05 0)
(1.04883 3.06069e-05 0)
(1.04883 3.06521e-05 0)
(1.04883 3.06478e-05 0)
(1.04883 3.07232e-05 0)
(1.04883 3.07808e-05 0)
(1.04883 3.09363e-05 0)
(1.04883 3.11058e-05 0)
(1.04883 3.14153e-05 0)
(1.04883 3.1813e-05 0)
(1.04883 3.24372e-05 0)
(1.04883 3.32638e-05 0)
(1.04882 3.44623e-05 0)
(1.04882 3.60134e-05 0)
(1.04882 3.813e-05 0)
(1.04881 4.05793e-05 0)
(1.0488 4.36001e-05 0)
(1.04879 4.62221e-05 0)
(1.04877 5.53967e-05 0)
(1.04873 8.55742e-05 0)
(1.04867 0.00024062 0)
(1.04828 0.000654168 0)
(1.04778 0.0018186 0)
(1.04425 0.00286292 0)
(1.0165 0.136371 0)
(1.08993 0.0584945 0)
(1.05244 0.0197492 0)
(1.06295 0.00262363 0)
(1.05733 -0.000874043 0)
(1.05991 -0.000494034 0)
(1.05907 5.81997e-05 0)
(1.05939 0.000447258 0)
(1.05906 0.000520772 0)
(1.05896 0.000510555 0)
(1.05877 0.000447794 0)
(1.05864 0.000387649 0)
(1.05851 0.00033045 0)
(1.05841 0.000282871 0)
(1.05832 0.000242723 0)
(1.05825 0.000209203 0)
(1.05818 0.000180868 0)
(1.05812 0.000157012 0)
(1.05807 0.000136498 0)
(1.05803 0.000118908 0)
(1.05799 0.000103586 0)
(1.05795 9.03628e-05 0)
(1.05793 7.87824e-05 0)
(1.0579 6.86218e-05 0)
(1.05788 5.99782e-05 0)
(1.05786 5.22284e-05 0)
(1.05785 4.57688e-05 0)
(1.05783 3.99867e-05 0)
(1.05782 3.53004e-05 0)
(1.05781 3.13188e-05 0)
(1.05781 2.79893e-05 0)
(1.0578 2.52002e-05 0)
(1.05779 2.28558e-05 0)
(1.05779 2.09684e-05 0)
(1.05779 1.94325e-05 0)
(1.05778 1.8104e-05 0)
(1.05778 1.71392e-05 0)
(1.05778 1.62468e-05 0)
(1.05778 1.57095e-05 0)
(1.05778 1.51891e-05 0)
(1.05778 1.49345e-05 0)
(1.05778 1.46677e-05 0)
(1.05778 1.45439e-05 0)
(1.05778 1.4386e-05 0)
(1.05778 1.43039e-05 0)
(1.05778 1.41452e-05 0)
(1.05777 1.40767e-05 0)
(1.05777 1.39038e-05 0)
(1.05777 1.3862e-05 0)
(1.05777 1.37136e-05 0)
(1.05777 1.37226e-05 0)
(1.05777 1.36401e-05 0)
(1.05777 1.36937e-05 0)
(1.05777 1.36576e-05 0)
(1.05777 1.37312e-05 0)
(1.05777 1.37051e-05 0)
(1.05777 1.37578e-05 0)
(1.05777 1.37078e-05 0)
(1.05777 1.37404e-05 0)
(1.05777 1.36649e-05 0)
(1.05777 1.36909e-05 0)
(1.05777 1.36152e-05 0)
(1.05777 1.36646e-05 0)
(1.05777 1.36137e-05 0)
(1.05777 1.36711e-05 0)
(1.05777 1.36421e-05 0)
(1.05777 1.37121e-05 0)
(1.05777 1.37018e-05 0)
(1.05777 1.37702e-05 0)
(1.05777 1.37461e-05 0)
(1.05777 1.38054e-05 0)
(1.05777 1.37738e-05 0)
(1.05777 1.38225e-05 0)
(1.05777 1.37826e-05 0)
(1.05777 1.38195e-05 0)
(1.05777 1.37811e-05 0)
(1.05777 1.38231e-05 0)
(1.05777 1.38004e-05 0)
(1.05777 1.38517e-05 0)
(1.05777 1.38485e-05 0)
(1.05777 1.39344e-05 0)
(1.05777 1.40015e-05 0)
(1.05777 1.41787e-05 0)
(1.05777 1.4373e-05 0)
(1.05777 1.47239e-05 0)
(1.05777 1.51747e-05 0)
(1.05777 1.58785e-05 0)
(1.05777 1.68105e-05 0)
(1.05777 1.81652e-05 0)
(1.05777 1.99363e-05 0)
(1.05776 2.23749e-05 0)
(1.05776 2.53412e-05 0)
(1.05775 2.92695e-05 0)
(1.05774 3.32352e-05 0)
(1.05773 4.61969e-05 0)
(1.05768 8.41847e-05 0)
(1.05762 0.000269217 0)
(1.05728 0.000751765 0)
(1.05688 0.00217966 0)
(1.05392 0.00349282 0)
(1.01204 0.120364 0)
(1.08674 0.0578624 0)
(1.05569 0.020729 0)
(1.06673 0.0028108 0)
(1.06113 -0.0008719 0)
(1.06363 -0.000556724 0)
(1.06274 4.99606e-05 0)
(1.06313 0.000460404 0)
(1.06286 0.00054573 0)
(1.06283 0.000535435 0)
(1.0627 0.000469986 0)
(1.06262 0.000406 0)
(1.06254 0.000345266 0)
(1.06248 0.000294525 0)
(1.06242 0.000251721 0)
(1.06237 0.000215951 0)
(1.06233 0.000185811 0)
(1.06229 0.000160438 0)
(1.06226 0.00013863 0)
(1.06223 0.000119919 0)
(1.0622 0.000103633 0)
(1.06218 8.95717e-05 0)
(1.06216 7.72392e-05 0)
(1.06214 6.64017e-05 0)
(1.06212 5.71868e-05 0)
(1.06211 4.89517e-05 0)
(1.0621 4.21012e-05 0)
(1.06209 3.60112e-05 0)
(1.06208 3.09898e-05 0)
(1.06208 2.66366e-05 0)
(1.06207 2.29826e-05 0)
(1.06207 1.99014e-05 0)
(1.06206 1.73032e-05 0)
(1.06206 1.51764e-05 0)
(1.06206 1.34361e-05 0)
(1.06205 1.19067e-05 0)
(1.06205 1.0831e-05 0)
(1.06205 9.84072e-06 0)
(1.06205 9.23474e-06 0)
(1.06205 8.65692e-06 0)
(1.06205 8.3672e-06 0)
(1.06205 8.06954e-06 0)
(1.06205 7.92807e-06 0)
(1.06205 7.7506e-06 0)
(1.06205 7.65857e-06 0)
(1.06205 7.47883e-06 0)
(1.06205 7.39813e-06 0)
(1.06205 7.20476e-06 0)
(1.06205 7.15566e-06 0)
(1.06205 6.99491e-06 0)
(1.06205 7.00322e-06 0)
(1.06205 6.91482e-06 0)
(1.06205 6.97443e-06 0)
(1.06205 6.93558e-06 0)
(1.06205 7.01362e-06 0)
(1.06205 6.98302e-06 0)
(1.06205 7.03956e-06 0)
(1.06205 6.98463e-06 0)
(1.06205 7.01935e-06 0)
(1.06205 6.93627e-06 0)
(1.06205 6.9634e-06 0)
(1.06205 6.8798e-06 0)
(1.06205 6.9318e-06 0)
(1.06205 6.87835e-06 0)
(1.06205 6.94285e-06 0)
(1.06205 6.9134e-06 0)
(1.06205 6.9904e-06 0)
(1.06205 6.9809e-06 0)
(1.06205 7.05786e-06 0)
(1.06205 7.03269e-06 0)
(1.06205 7.09692e-06 0)
(1.06205 7.06266e-06 0)
(1.06205 7.11452e-06 0)
(1.06205 7.07029e-06 0)
(1.06205 7.10904e-06 0)
(1.06205 7.06658e-06 0)
(1.06205 7.11113e-06 0)
(1.06205 7.08627e-06 0)
(1.06205 7.14204e-06 0)
(1.06205 7.13933e-06 0)
(1.06205 7.23272e-06 0)
(1.06205 7.30647e-06 0)
(1.06205 7.50026e-06 0)
(1.06205 7.71348e-06 0)
(1.06205 8.09519e-06 0)
(1.06205 8.58402e-06 0)
(1.06204 9.34663e-06 0)
(1.06204 1.03597e-05 0)
(1.06204 1.18344e-05 0)
(1.06204 1.38304e-05 0)
(1.06204 1.65749e-05 0)
(1.06204 1.99588e-05 0)
(1.06203 2.46613e-05 0)
(1.06202 2.99146e-05 0)
(1.06201 4.62048e-05 0)
(1.06197 9.0585e-05 0)
(1.06192 0.000301551 0)
(1.06164 0.000838732 0)
(1.06135 0.00247831 0)
(1.05909 0.00399109 0)
(1.00741 0.105744 0)
(1.08233 0.0560071 0)
(1.05676 0.021053 0)
(1.06826 0.00291919 0)
(1.06274 -0.000852071 0)
(1.06514 -0.00060018 0)
(1.06422 4.17581e-05 0)
(1.06465 0.000463389 0)
(1.06444 0.000557771 0)
(1.06448 0.000547918 0)
(1.0644 0.00048176 0)
(1.06438 0.000415974 0)
(1.06434 0.000353589 0)
(1.06432 0.000301254 0)
(1.06429 0.000257106 0)
(1.06427 0.000220165 0)
(1.06424 0.000189067 0)
(1.06423 0.00016287 0)
(1.06421 0.000140341 0)
(1.06419 0.000120977 0)
(1.06418 0.000104105 0)
(1.06417 8.95062e-05 0)
(1.06416 7.67031e-05 0)
(1.06415 6.54506e-05 0)
(1.06414 5.58775e-05 0)
(1.06413 4.73272e-05 0)
(1.06412 4.02037e-05 0)
(1.06412 3.38828e-05 0)
(1.06411 2.86572e-05 0)
(1.06411 2.41303e-05 0)
(1.0641 2.03397e-05 0)
(1.0641 1.7159e-05 0)
(1.0641 1.44685e-05 0)
(1.0641 1.21957e-05 0)
(1.06409 1.03359e-05 0)
(1.06409 8.69024e-06 0)
(1.06409 7.52345e-06 0)
(1.06409 6.44073e-06 0)
(1.06409 5.76154e-06 0)
(1.06409 5.13399e-06 0)
(1.06409 4.81645e-06 0)
(1.06409 4.49444e-06 0)
(1.06409 4.33733e-06 0)
(1.06409 4.1422e-06 0)
(1.06409 4.0426e-06 0)
(1.06409 3.84745e-06 0)
(1.06409 3.75861e-06 0)
(1.06409 3.54981e-06 0)
(1.06409 3.49556e-06 0)
(1.06409 3.32651e-06 0)
(1.06409 3.33514e-06 0)
(1.06409 3.24315e-06 0)
(1.06409 3.30779e-06 0)
(1.06409 3.26675e-06 0)
(1.06409 3.3468e-06 0)
(1.06409 3.31074e-06 0)
(1.06409 3.36824e-06 0)
(1.06409 3.30835e-06 0)
(1.06409 3.34474e-06 0)
(1.06409 3.25658e-06 0)
(1.06409 3.28611e-06 0)
(1.06409 3.19727e-06 0)
(1.06409 3.25091e-06 0)
(1.06409 3.19544e-06 0)
(1.06409 3.26553e-06 0)
(1.06409 3.23629e-06 0)
(1.06409 3.31867e-06 0)
(1.06409 3.31007e-06 0)
(1.06409 3.395e-06 0)
(1.06409 3.37031e-06 0)
(1.06409 3.43843e-06 0)
(1.06409 3.40177e-06 0)
(1.06409 3.45554e-06 0)
(1.06409 3.40772e-06 0)
(1.06409 3.44742e-06 0)
(1.06409 3.40111e-06 0)
(1.06409 3.44663e-06 0)
(1.06409 3.41927e-06 0)
(1.06409 3.47789e-06 0)
(1.06409 3.47478e-06 0)
(1.06409 3.57237e-06 0)
(1.06409 3.64947e-06 0)
(1.06409 3.85444e-06 0)
(1.06409 4.08043e-06 0)
(1.06409 4.48409e-06 0)
(1.06409 4.99965e-06 0)
(1.06409 5.80918e-06 0)
(1.06409 6.90248e-06 0)
(1.06408 8.47457e-06 0)
(1.06408 1.05917e-05 0)
(1.06408 1.35225e-05 0)
(1.06408 1.71412e-05 0)
(1.06408 2.23829e-05 0)
(1.06407 2.87413e-05 0)
(1.06406 4.80328e-05 0)
(1.06403 9.78354e-05 0)
(1.06399 0.000328866 0)
(1.06379 0.000903533 0)
(1.06361 0.00269434 0)
(1.06211 0.00433963 0)
(1.00323 0.0925016 0)
(1.07777 0.0532114 0)
(1.05685 0.0208111 0)
(1.06874 0.00295114 0)
(1.06332 -0.000819293 0)
(1.06562 -0.000625574 0)
(1.06467 3.33159e-05 0)
(1.06514 0.000456048 0)
(1.06498 0.000556491 0)
(1.06508 0.000547472 0)
(1.06506 0.00048233 0)
(1.06509 0.000416592 0)
(1.06509 0.00035429 0)
(1.06509 0.000301836 0)
(1.0651 0.000257592 0)
(1.0651 0.000220521 0)
(1.0651 0.000189309 0)
(1.0651 0.000162999 0)
(1.0651 0.000140357 0)
(1.06509 0.000120867 0)
(1.06509 0.00010387 0)
(1.06509 8.91306e-05 0)
(1.06509 7.61911e-05 0)
(1.06508 6.47942e-05 0)
(1.06508 5.50886e-05 0)
(1.06508 4.64131e-05 0)
(1.06508 3.91651e-05 0)
(1.06507 3.27277e-05 0)
(1.06507 2.73988e-05 0)
(1.06507 2.27905e-05 0)
(1.06507 1.89264e-05 0)
(1.06507 1.56822e-05 0)
(1.06507 1.29464e-05 0)
(1.06507 1.06323e-05 0)
(1.06506 8.75705e-06 0)
(1.06506 7.10523e-06 0)
(1.06506 5.89574e-06 0)
(1.06506 4.76773e-06 0)
(1.06506 4.05397e-06 0)
(1.06506 3.39401e-06 0)
(1.06506 3.0535e-06 0)
(1.06506 2.7078e-06 0)
(1.06506 2.53488e-06 0)
(1.06506 2.31964e-06 0)
(1.06506 2.215e-06 0)
(1.06506 2.00887e-06 0)
(1.06506 1.91602e-06 0)
(1.06506 1.69682e-06 0)
(1.06506 1.63965e-06 0)
(1.06506 1.46624e-06 0)
(1.06506 1.47635e-06 0)
(1.06506 1.38286e-06 0)
(1.06506 1.45148e-06 0)
(1.06506 1.40893e-06 0)
(1.06506 1.48903e-06 0)
(1.06506 1.44726e-06 0)
(1.06506 1.5034e-06 0)
(1.06506 1.43857e-06 0)
(1.06506 1.47597e-06 0)
(1.06506 1.38461e-06 0)
(1.06506 1.41744e-06 0)
(1.06506 1.32598e-06 0)
(1.06506 1.38079e-06 0)
(1.06506 1.32398e-06 0)
(1.06506 1.39844e-06 0)
(1.06506 1.37019e-06 0)
(1.06506 1.45647e-06 0)
(1.06506 1.44857e-06 0)
(1.06506 1.54036e-06 0)
(1.06506 1.51739e-06 0)
(1.06506 1.58884e-06 0)
(1.06506 1.55009e-06 0)
(1.06506 1.60484e-06 0)
(1.06506 1.55414e-06 0)
(1.06506 1.59408e-06 0)
(1.06506 1.54415e-06 0)
(1.06506 1.58904e-06 0)
(1.06506 1.55864e-06 0)
(1.06506 1.61842e-06 0)
(1.06506 1.61393e-06 0)
(1.06506 1.71257e-06 0)
(1.06506 1.78946e-06 0)
(1.06506 2.00073e-06 0)
(1.06506 2.23464e-06 0)
(1.06506 2.65856e-06 0)
(1.06506 3.19846e-06 0)
(1.06506 4.03471e-06 0)
(1.06506 5.15347e-06 0)
(1.06506 6.75747e-06 0)
(1.06506 8.86089e-06 0)
(1.06506 1.18358e-05 0)
(1.06506 1.5614e-05 0)
(1.06506 2.13228e-05 0)
(1.06505 2.86539e-05 0)
(1.06504 5.04654e-05 0)
(1.06502 0.000104271 0)
(1.06499 0.000348182 0)
(1.06489 0.000942767 0)
(1.06481 0.00282183 0)
(1.06408 0.00453645 0)
(0.99967 0.0804955 0)
(1.07353 0.0496859 0)
(1.05651 0.0200851 0)
(1.06874 0.00291069 0)
(1.06345 -0.000775844 0)
(1.06563 -0.000633301 0)
(1.06465 2.47582e-05 0)
(1.06516 0.000439133 0)
(1.06505 0.000542532 0)
(1.0652 0.000534605 0)
(1.06523 0.000471945 0)
(1.0653 0.000407888 0)
(1.06534 0.000347208 0)
(1.06537 0.000295954 0)
(1.0654 0.000252727 0)
(1.06543 0.000216459 0)
(1.06545 0.000185911 0)
(1.06546 0.000160145 0)
(1.06548 0.000137958 0)
(1.06549 0.000118836 0)
(1.0655 0.000102149 0)
(1.0655 8.76516e-05 0)
(1.06551 7.49088e-05 0)
(1.06551 6.3651e-05 0)
(1.06552 5.40589e-05 0)
(1.06552 4.54764e-05 0)
(1.06552 3.82914e-05 0)
(1.06552 3.18993e-05 0)
(1.06553 2.65946e-05 0)
(1.06553 2.20055e-05 0)
(1.06553 1.81429e-05 0)
(1.06553 1.48876e-05 0)
(1.06553 1.21487e-05 0)
(1.06553 9.83397e-06 0)
(1.06553 7.97018e-06 0)
(1.06553 6.32129e-06 0)
(1.06553 5.11925e-06 0)
(1.06553 4.00265e-06 0)
(1.06553 3.304e-06 0)
(1.06553 2.6422e-06 0)
(1.06553 2.29385e-06 0)
(1.06553 1.94015e-06 0)
(1.06553 1.75921e-06 0)
(1.06553 1.53211e-06 0)
(1.06553 1.42483e-06 0)
(1.06553 1.20842e-06 0)
(1.06553 1.1137e-06 0)
(1.06553 8.86887e-07 0)
(1.06553 8.29409e-07 0)
(1.06553 6.551e-07 0)
(1.06553 6.67864e-07 0)
(1.06553 5.74397e-07 0)
(1.06553 6.45813e-07 0)
(1.06553 6.02066e-07 0)
(1.06553 6.81022e-07 0)
(1.06553 6.33841e-07 0)
(1.06553 6.87298e-07 0)
(1.06553 6.1751e-07 0)
(1.06553 6.55246e-07 0)
(1.06553 5.6186e-07 0)
(1.06553 5.98295e-07 0)
(1.06553 5.06322e-07 0)
(1.06553 5.62444e-07 0)
(1.06553 5.05085e-07 0)
(1.06553 5.83176e-07 0)
(1.06553 5.56648e-07 0)
(1.06553 6.45657e-07 0)
(1.06553 6.37867e-07 0)
(1.06553 7.35026e-07 0)
(1.06553 7.14633e-07 0)
(1.06553 7.89088e-07 0)
(1.06553 7.48833e-07 0)
(1.06553 8.03981e-07 0)
(1.06553 7.51094e-07 0)
(1.06553 7.9074e-07 0)
(1.06553 7.37479e-07 0)
(1.06553 7.80281e-07 0)
(1.06553 7.4627e-07 0)
(1.06553 8.05512e-07 0)
(1.06553 7.98643e-07 0)
(1.06553 8.95907e-07 0)
(1.06553 9.69527e-07 0)
(1.06553 1.18621e-06 0)
(1.06553 1.42553e-06 0)
(1.06553 1.85581e-06 0)
(1.06553 2.39621e-06 0)
(1.06553 3.22183e-06 0)
(1.06553 4.30037e-06 0)
(1.06553 5.86764e-06 0)
(1.06553 7.93777e-06 0)
(1.06553 1.09151e-05 0)
(1.06553 1.47917e-05 0)
(1.06553 2.08457e-05 0)
(1.06553 2.89311e-05 0)
(1.06552 5.25329e-05 0)
(1.06551 0.000108588 0)
(1.06549 0.0003578 0)
(1.06548 0.000955138 0)
(1.06551 0.00286042 0)
(1.06553 0.00458627 0)
(0.996715 0.0695546 0)
(1.06976 0.0455902 0)
(1.05601 0.018947 0)
(1.06853 0.00280237 0)
(1.06338 -0.000723041 0)
(1.06545 -0.000623771 0)
(1.06444 1.63767e-05 0)
(1.06497 0.000413574 0)
(1.0649 0.000516792 0)
(1.06511 0.000510089 0)
(1.06518 0.000451153 0)
(1.06529 0.000390211 0)
(1.06536 0.000332508 0)
(1.06542 0.000283623 0)
(1.06548 0.000242405 0)
(1.06552 0.000207771 0)
(1.06556 0.000178585 0)
(1.06559 0.000153953 0)
(1.06562 0.000132729 0)
(1.06564 0.00011442 0)
(1.06566 9.84295e-05 0)
(1.06568 8.45191e-05 0)
(1.06569 7.22802e-05 0)
(1.0657 6.1433e-05 0)
(1.06571 5.21906e-05 0)
(1.06572 4.39118e-05 0)
(1.06573 3.69742e-05 0)
(1.06573 3.07898e-05 0)
(1.06573 2.56445e-05 0)
(1.06574 2.11897e-05 0)
(1.06574 1.74263e-05 0)
(1.06574 1.42409e-05 0)
(1.06574 1.15637e-05 0)
(1.06575 9.29529e-06 0)
(1.06575 7.47696e-06 0)
(1.06575 5.85233e-06 0)
(1.06575 4.68011e-06 0)
(1.06575 3.58956e-06 0)
(1.06575 2.91357e-06 0)
(1.06575 2.26978e-06 0)
(1.06575 1.93065e-06 0)
(1.06575 1.58775e-06 0)
(1.06575 1.40946e-06 0)
(1.06575 1.18383e-06 0)
(1.06575 1.07871e-06 0)
(1.06575 8.61319e-07 0)
(1.06575 7.71299e-07 0)
(1.06575 5.41796e-07 0)
(1.06575 4.85979e-07 0)
(1.06575 3.13686e-07 0)
(1.06575 3.30174e-07 0)
(1.06575 2.37591e-07 0)
(1.06575 3.10439e-07 0)
(1.06575 2.65262e-07 0)
(1.06575 3.42477e-07 0)
(1.06575 2.90667e-07 0)
(1.06575 3.41245e-07 0)
(1.06575 2.66305e-07 0)
(1.06575 3.03825e-07 0)
(1.06575 2.08846e-07 0)
(1.06575 2.4873e-07 0)
(1.06575 1.57937e-07 0)
(1.06575 2.15679e-07 0)
(1.06575 1.58883e-07 0)
(1.06575 2.40068e-07 0)
(1.06575 2.15696e-07 0)
(1.06575 3.06816e-07 0)
(1.06575 2.98373e-07 0)
(1.06575 3.99411e-07 0)
(1.06575 3.81808e-07 0)
(1.06575 4.60387e-07 0)
(1.06575 4.18228e-07 0)
(1.06575 4.74442e-07 0)
(1.06575 4.19143e-07 0)
(1.06575 4.58627e-07 0)
(1.06575 4.01746e-07 0)
(1.06575 4.41503e-07 0)
(1.06575 4.03034e-07 0)
(1.06575 4.61112e-07 0)
(1.06575 4.50143e-07 0)
(1.06575 5.46495e-07 0)
(1.06575 6.14284e-07 0)
(1.06575 8.27536e-07 0)
(1.06575 1.06141e-06 0)
(1.06575 1.47639e-06 0)
(1.06575 1.98967e-06 0)
(1.06575 2.78137e-06 0)
(1.06575 3.81351e-06 0)
(1.06575 5.32303e-06 0)
(1.06575 7.33288e-06 0)
(1.06575 1.02571e-05 0)
(1.06576 1.41349e-05 0)
(1.06576 2.0348e-05 0)
(1.06576 2.88872e-05 0)
(1.06576 5.34049e-05 0)
(1.06576 0.000109853 0)
(1.06575 0.000356816 0)
(1.06583 0.000940464 0)
(1.06596 0.00281302 0)
(1.06668 0.00449748 0)
(0.994302 0.0595132 0)
(1.0665 0.0410472 0)
(1.05548 0.0174597 0)
(1.06826 0.00263123 0)
(1.06323 -0.000661626 0)
(1.0652 -0.000597463 0)
(1.06416 8.69387e-06 0)