/*--------------------------------*- C++ -*----------------------------------*\
| =========                 |                                                 |
| \\      /  F ield         | OpenFOAM: The Open Source CFD Toolbox           |
|  \\    /   O peration     | Version:  v1906                                 |
|   \\  /    A nd           | Web:      www.OpenFOAM.com                      |
|    \\/     M anipulation  |                                                 |
\*---------------------------------------------------------------------------*/
FoamFile
{
    version     2.0;
    format      ascii;
    class       volVectorField;
    location    "1.5";
    object      U;
}
// * * * * * * * * * * * * * * * * * * * * * * * * * * * * * * * * * * * * * //

dimensions      [0 1 -1 0 0 0 0];


internalField   nonuniform List<vector> 
4000
(
(0.486548 0.0295871 0)
(0.550209 -0.00143128 0)
(0.507326 -0.0021733 0)
(0.530503 -0.00196803 0)
(0.515386 -0.00213433 0)
(0.524077 -0.00203716 0)
(0.518092 -0.00210846 0)
(0.521436 -0.00206983 0)
(0.519036 -0.00209919 0)
(0.520315 -0.00208421 0)
(0.519346 -0.00209624 0)
(0.519834 -0.00209068 0)
(0.519442 -0.00209557 0)
(0.519627 -0.00209352 0)
(0.51947 -0.00209554 0)
(0.51954 -0.00209479 0)
(0.519477 -0.00209562 0)
(0.519505 -0.00209535 0)
(0.519479 -0.00209568 0)
(0.51949 -0.00209557 0)
(0.51948 -0.00209571 0)
(0.519484 -0.00209568 0)
(0.51948 -0.00209572 0)
(0.519482 -0.00209571 0)
(0.51948 -0.00209573 0)
(0.519481 -0.00209573 0)
(0.519481 -0.00209573 0)
(0.519481 -0.00209573 0)
(0.519481 -0.00209573 0)
(0.519481 -0.00209573 0)
(0.519481 -0.00209573 0)
(0.519481 -0.00209573 0)
(0.519481 -0.00209573 0)
(0.519481 -0.00209573 0)
(0.519481 -0.00209573 0)
(0.519481 -0.00209573 0)
(0.519481 -0.00209573 0)
(0.519481 -0.00209573 0)
(0.519481 -0.00209573 0)
(0.519481 -0.00209573 0)
(0.519481 -0.00209573 0)
(0.519481 -0.00209573 0)
(0.519481 -0.00209573 0)
(0.519481 -0.00209573 0)
(0.519481 -0.00209573 0)
(0.519481 -0.00209573 0)
(0.519481 -0.00209573 0)
(0.519481 -0.00209574 0)
(0.519481 -0.00209573 0)
(0.519481 -0.00209573 0)
(0.519481 -0.00209573 0)
(0.519481 -0.00209573 0)
(0.519481 -0.00209573 0)
(0.519481 -0.00209573 0)
(0.519481 -0.00209573 0)
(0.519481 -0.00209573 0)
(0.519481 -0.00209573 0)
(0.519481 -0.00209573 0)
(0.519481 -0.00209573 0)
(0.519481 -0.00209573 0)
(0.519481 -0.00209573 0)
(0.519481 -0.00209573 0)
(0.519481 -0.00209573 0)
(0.519481 -0.00209573 0)
(0.519481 -0.00209573 0)
(0.519481 -0.00209573 0)
(0.519481 -0.00209573 0)
(0.51948 -0.00209573 0)
(0.51948 -0.00209573 0)
(0.51948 -0.00209573 0)
(0.51948 -0.00209573 0)
(0.51948 -0.00209573 0)
(0.51948 -0.00209573 0)
(0.51948 -0.00209574 0)
(0.519481 -0.00209573 0)
(0.519481 -0.00209573 0)
(0.519481 -0.00209573 0)
(0.519481 -0.00209573 0)
(0.519481 -0.00209573 0)
(0.519481 -0.00209573 0)
(0.519481 -0.00209573 0)
(0.519481 -0.00209573 0)
(0.519481 -0.00209573 0)
(0.519481 -0.00209573 0)
(0.519481 -0.00209573 0)
(0.519481 -0.00209573 0)
(0.519481 -0.00209573 0)
(0.519481 -0.00209573 0)
(0.51948 -0.00209573 0)
(0.519481 -0.00209573 0)
(0.51948 -0.00209572 0)
(0.51948 -0.00209571 0)
(0.519479 -0.00209567 0)
(0.519478 -0.00209564 0)
(0.519475 -0.00209551 0)
(0.519471 -0.0020955 0)
(0.519467 -0.00209521 0)
(0.519444 -0.00209629 0)
(0.519495 -0.00208524 0)
(0.519166 -0.00211064 0)
(0.803155 0.0707539 0)
(0.915513 0.00206257 0)
(0.844707 -0.000815555 0)
(0.884059 0.000295528 0)
(0.858566 -0.000546622 0)
(0.873379 -4.18932e-05 0)
(0.863305 -0.000398913 0)
(0.869016 -0.000200117 0)
(0.864983 -0.00034662 0)
(0.867173 -0.000269423 0)
(0.865547 -0.00032947 0)
(0.866383 -0.00030118 0)
(0.865726 -0.000325256 0)
(0.866045 -0.00031482 0)
(0.86578 -0.000324745 0)
(0.865901 -0.000320908 0)
(0.865795 -0.000324978 0)
(0.865842 -0.000323573 0)
(0.865799 -0.000325223 0)
(0.865817 -0.00032469 0)
(0.8658 -0.000325356 0)
(0.865807 -0.000325163 0)
(0.865801 -0.000325409 0)
(0.865804 -0.000325332 0)
(0.865801 -0.000325439 0)
(0.865802 -0.000325415 0)
(0.865801 -0.000325447 0)
(0.865801 -0.000325437 0)
(0.865801 -0.000325456 0)
(0.865801 -0.000325449 0)
(0.865801 -0.000325453 0)
(0.865801 -0.000325461 0)
(0.865801 -0.000325448 0)
(0.865801 -0.000325452 0)
(0.865801 -0.000325453 0)
(0.865801 -0.000325457 0)
(0.865801 -0.000325449 0)
(0.865801 -0.00032546 0)
(0.865801 -0.000325454 0)
(0.865801 -0.000325454 0)
(0.865801 -0.00032545 0)
(0.865801 -0.000325452 0)
(0.865801 -0.000325448 0)
(0.865801 -0.00032546 0)
(0.865801 -0.000325451 0)
(0.865801 -0.000325459 0)
(0.865801 -0.00032546 0)
(0.865801 -0.000325465 0)
(0.865801 -0.000325458 0)
(0.865801 -0.000325462 0)
(0.865801 -0.000325455 0)
(0.865801 -0.00032546 0)
(0.865801 -0.000325451 0)
(0.865801 -0.000325459 0)
(0.865801 -0.00032545 0)
(0.865801 -0.00032546 0)
(0.865801 -0.00032545 0)
(0.865801 -0.000325454 0)
(0.865801 -0.000325451 0)
(0.865801 -0.000325455 0)
(0.865801 -0.000325451 0)
(0.865801 -0.000325457 0)
(0.865801 -0.000325452 0)
(0.865801 -0.000325459 0)
(0.865801 -0.000325453 0)
(0.865801 -0.000325459 0)
(0.865801 -0.000325451 0)
(0.865801 -0.000325456 0)
(0.865801 -0.000325453 0)
(0.865801 -0.000325458 0)
(0.865801 -0.000325454 0)
(0.865801 -0.000325459 0)
(0.865801 -0.000325456 0)
(0.865801 -0.000325461 0)
(0.865801 -0.000325454 0)
(0.865801 -0.000325462 0)
(0.865801 -0.000325453 0)
(0.865801 -0.000325458 0)
(0.865801 -0.000325455 0)
(0.865801 -0.000325457 0)
(0.865801 -0.000325458 0)
(0.865801 -0.000325458 0)
(0.865801 -0.000325458 0)
(0.865801 -0.000325459 0)
(0.865801 -0.000325454 0)
(0.865801 -0.000325457 0)
(0.865801 -0.000325451 0)
(0.865801 -0.000325453 0)
(0.865801 -0.00032544 0)
(0.865801 -0.000325436 0)
(0.8658 -0.0003254 0)
(0.8658 -0.00032537 0)
(0.865799 -0.000325248 0)
(0.865798 -0.000325136 0)
(0.865793 -0.000324697 0)
(0.865786 -0.000324639 0)
(0.86578 -0.000323109 0)
(0.865737 -0.0003265 0)
(0.865803 -0.000280615 0)
(0.864669 -0.000284516 0)
(0.904928 0.0785245 0)
(1.03661 0.0039745 0)
(0.956027 -0.000256033 0)
(1.00201 0.00150129 0)
(0.972423 8.93154e-05 0)
(0.989807 0.000932363 0)
(0.978138 0.00032233 0)
(0.984856 0.000651595 0)
(0.980195 0.000406585 0)
(0.98278 0.000532719 0)
(0.980905 0.000432207 0)
(0.981894 0.000478248 0)
(0.981138 0.000437298 0)
(0.981516 0.000454 0)
(0.981211 0.000436996 0)
(0.981355 0.000443034 0)
(0.981232 0.000435966 0)
(0.981287 0.000438128 0)
(0.981238 0.000435236 0)
(0.98126 0.000436034 0)
(0.98124 0.000434865 0)
(0.981249 0.000435147 0)
(0.981241 0.000434706 0)
(0.981244 0.000434822 0)
(0.981241 0.000434638 0)
(0.981242 0.00043467 0)
(0.981241 0.000434607 0)
(0.981242 0.000434617 0)
(0.981241 0.000434589 0)
(0.981241 0.000434591 0)
(0.981241 0.000434588 0)
(0.981241 0.000434577 0)
(0.981241 0.000434595 0)
(0.981241 0.000434592 0)
(0.981241 0.000434596 0)
(0.981241 0.000434581 0)
(0.981241 0.000434596 0)
(0.981241 0.000434579 0)
(0.981241 0.000434587 0)
(0.981241 0.000434587 0)
(0.981241 0.000434598 0)
(0.981241 0.000434589 0)
(0.981241 0.000434599 0)
(0.981241 0.00043458 0)
(0.981241 0.000434588 0)
(0.981241 0.000434578 0)
(0.981241 0.000434577 0)
(0.981241 0.000434567 0)
(0.981241 0.00043458 0)
(0.981241 0.000434574 0)
(0.981241 0.000434585 0)
(0.981241 0.000434577 0)
(0.981241 0.000434592 0)
(0.981241 0.000434579 0)
(0.981241 0.000434592 0)
(0.981241 0.000434579 0)
(0.981241 0.000434594 0)
(0.981241 0.000434588 0)
(0.981241 0.000434594 0)
(0.981241 0.000434585 0)
(0.981241 0.000434592 0)
(0.981241 0.000434581 0)
(0.981241 0.00043459 0)
(0.981241 0.000434576 0)
(0.981241 0.000434587 0)
(0.981241 0.000434578 0)
(0.981241 0.000434591 0)
(0.981241 0.000434584 0)
(0.981241 0.00043459 0)
(0.981241 0.00043458 0)
(0.981241 0.000434588 0)
(0.981241 0.000434579 0)
(0.981241 0.000434583 0)
(0.981241 0.000434574 0)
(0.981241 0.000434585 0)
(0.981241 0.000434575 0)
(0.981241 0.000434586 0)
(0.981241 0.00043458 0)
(0.981241 0.000434585 0)
(0.981241 0.00043458 0)
(0.981241 0.000434582 0)
(0.981241 0.000434578 0)
(0.981241 0.000434582 0)
(0.981241 0.000434577 0)
(0.981241 0.000434585 0)
(0.981241 0.000434582 0)
(0.981241 0.000434592 0)
(0.981241 0.000434591 0)
(0.981241 0.000434614 0)
(0.981241 0.000434625 0)
(0.98124 0.000434691 0)
(0.98124 0.000434753 0)
(0.981239 0.000434982 0)
(0.981238 0.000435206 0)
(0.981233 0.000436061 0)
(0.981226 0.000436181 0)
(0.98122 0.000439842 0)
(0.981166 0.000433882 0)
(0.981229 0.000531233 0)
(0.979623 0.000668108 0)
(0.936407 0.0745006 0)
(1.0768 0.0042313 0)
(0.991969 -0.000481377 0)
(1.04146 0.00156247 0)
(1.00982 -0.000164718 0)
(1.02863 0.000867245 0)
(1.01617 0.000101116 0)
(1.02346 0.000510837 0)
(1.01849 0.00020066 0)
(1.0213 0.000353643 0)
(1.01931 0.000227807 0)
(1.02039 0.000283543 0)
(1.01959 0.000231214 0)
(1.02 0.000251076 0)
(1.01968 0.000229096 0)
(1.01984 0.000236035 0)
(1.01971 0.000226859 0)
(1.01977 0.000229259 0)
(1.01972 0.00022547 0)
(1.01974 0.00022632 0)
(1.01972 0.000224788 0)
(1.01973 0.000225072 0)
(1.01972 0.000224485 0)
(1.01972 0.000224607 0)
(1.01972 0.000224364 0)
(1.01972 0.000224389 0)
(1.01972 0.0002243 0)
(1.01972 0.000224305 0)
(1.01972 0.000224272 0)
(1.01972 0.000224268 0)
(1.01972 0.000224266 0)
(1.01972 0.000224252 0)
(1.01972 0.000224273 0)
(1.01972 0.000224273 0)
(1.01972 0.000224282 0)
(1.01972 0.000224257 0)
(1.01972 0.000224277 0)
(1.01972 0.000224256 0)
(1.01972 0.000224266 0)
(1.01972 0.000224266 0)
(1.01972 0.000224283 0)
(1.01972 0.000224266 0)
(1.01972 0.000224284 0)
(1.01972 0.000224257 0)
(1.01972 0.000224261 0)
(1.01972 0.00022425 0)
(1.01972 0.00022425 0)
(1.01972 0.000224235 0)
(1.01972 0.000224253 0)
(1.01972 0.000224246 0)
(1.01972 0.000224261 0)
(1.01972 0.00022425 0)
(1.01972 0.00022427 0)
(1.01972 0.000224252 0)
(1.01972 0.000224271 0)
(1.01972 0.000224255 0)
(1.01972 0.000224273 0)
(1.01972 0.000224265 0)
(1.01972 0.000224276 0)
(1.01972 0.000224262 0)
(1.01972 0.000224272 0)
(1.01972 0.000224254 0)
(1.01972 0.000224268 0)
(1.01972 0.000224247 0)
(1.01972 0.000224263 0)
(1.01972 0.000224252 0)
(1.01972 0.00022427 0)
(1.01972 0.00022426 0)
(1.01972 0.00022427 0)
(1.01972 0.000224255 0)
(1.01972 0.000224265 0)
(1.01972 0.000224253 0)
(1.01972 0.000224259 0)
(1.01972 0.000224247 0)
(1.01972 0.00022426 0)
(1.01972 0.000224248 0)
(1.01972 0.000224262 0)
(1.01972 0.000224255 0)
(1.01972 0.000224262 0)
(1.01972 0.000224253 0)
(1.01972 0.000224258 0)
(1.01972 0.00022425 0)
(1.01972 0.000224256 0)
(1.01972 0.000224249 0)
(1.01972 0.00022426 0)
(1.01972 0.000224258 0)
(1.01972 0.00022427 0)
(1.01972 0.000224271 0)
(1.01972 0.000224304 0)
(1.01972 0.000224323 0)
(1.01972 0.000224417 0)
(1.01972 0.000224514 0)
(1.01972 0.000224847 0)
(1.01972 0.00022518 0)
(1.01971 0.000226456 0)
(1.01971 0.000226622 0)
(1.0197 0.000232933 0)
(1.01964 0.000224674 0)
(1.0197 0.000385572 0)
(1.01803 0.000699629 0)
(0.944949 0.0692166 0)
(1.09013 0.00421319 0)
(1.00284 -0.000655666 0)
(1.05473 0.00152832 0)
(1.02175 -0.00036919 0)
(1.04157 0.000770829 0)
(1.0286 -8.25685e-05 0)
(1.0363 0.00037549 0)
(1.03115 2.15667e-05 0)
(1.03413 0.00019353 0)
(1.03207 4.79743e-05 0)
(1.03322 0.000110881 0)
(1.03239 4.90608e-05 0)
(1.03283 7.13915e-05 0)
(1.0325 4.49717e-05 0)
(1.03266 5.22528e-05 0)
(1.03253 4.1483e-05 0)
(1.0326 4.39077e-05 0)
(1.03254 3.94248e-05 0)
(1.03257 4.024e-05 0)
(1.03255 3.84129e-05 0)
(1.03256 3.86698e-05 0)
(1.03255 3.79633e-05 0)
(1.03255 3.80741e-05 0)
(1.03255 3.77816e-05 0)
(1.03255 3.7795e-05 0)
(1.03255 3.76863e-05 0)
(1.03255 3.76813e-05 0)
(1.03255 3.76436e-05 0)
(1.03255 3.76323e-05 0)
(1.03255 3.76334e-05 0)
(1.03255 3.76168e-05 0)
(1.03255 3.76418e-05 0)
(1.03255 3.76435e-05 0)
(1.03255 3.76587e-05 0)
(1.03255 3.7623e-05 0)
(1.03255 3.76479e-05 0)
(1.03255 3.76235e-05 0)
(1.03255 3.76351e-05 0)
(1.03255 3.76345e-05 0)
(1.03255 3.7657e-05 0)
(1.03255 3.76322e-05 0)
(1.03255 3.76569e-05 0)
(1.03255 3.76235e-05 0)
(1.03255 3.76246e-05 0)
(1.03255 3.76123e-05 0)
(1.03255 3.76126e-05 0)
(1.03255 3.75939e-05 0)
(1.03255 3.76174e-05 0)
(1.03255 3.76089e-05 0)
(1.03255 3.76276e-05 0)
(1.03255 3.76121e-05 0)
(1.03255 3.7638e-05 0)
(1.03255 3.76149e-05 0)
(1.03255 3.76379e-05 0)
(1.03255 3.76205e-05 0)
(1.03255 3.76425e-05 0)
(1.03255 3.76329e-05 0)
(1.03255 3.76477e-05 0)
(1.03255 3.76297e-05 0)
(1.03255 3.76418e-05 0)
(1.03255 3.76187e-05 0)
(1.03255 3.76353e-05 0)
(1.03255 3.7609e-05 0)
(1.03255 3.76287e-05 0)
(1.03255 3.76152e-05 0)
(1.03255 3.76384e-05 0)
(1.03255 3.76267e-05 0)
(1.03255 3.76394e-05 0)
(1.03255 3.76204e-05 0)
(1.03255 3.76329e-05 0)
(1.03255 3.76177e-05 0)
(1.03255 3.7625e-05 0)
(1.03255 3.7609e-05 0)
(1.03255 3.76255e-05 0)
(1.03255 3.76116e-05 0)
(1.03255 3.76273e-05 0)
(1.03255 3.76199e-05 0)
(1.03255 3.76292e-05 0)
(1.03255 3.76165e-05 0)
(1.03255 3.76237e-05 0)
(1.03255 3.76114e-05 0)
(1.03255 3.76198e-05 0)
(1.03255 3.76102e-05 0)
(1.03255 3.7624e-05 0)
(1.03255 3.7622e-05 0)
(1.03255 3.76373e-05 0)
(1.03255 3.76406e-05 0)
(1.03255 3.76816e-05 0)
(1.03255 3.77086e-05 0)
(1.03255 3.78267e-05 0)
(1.03255 3.79531e-05 0)
(1.03255 3.83759e-05 0)
(1.03255 3.88043e-05 0)
(1.03254 4.04692e-05 0)
(1.03254 4.06504e-05 0)
(1.03253 4.98121e-05 0)
(1.03247 3.95049e-05 0)
(1.03253 0.000263173 0)
(1.03101 0.000725793 0)
(0.946113 0.0642269 0)
(1.09451 0.00424766 0)
(1.00543 -0.000678551 0)
(1.05925 0.00159521 0)
(1.02522 -0.000420603 0)
(1.04589 0.000795162 0)
(1.03251 -0.000115516 0)
(1.04057 0.00036885 0)
(1.03526 -8.33598e-06 0)
(1.03839 0.000175342 0)
(1.03627 1.70362e-05 0)
(1.03748 8.38359e-05 0)
(1.03663 1.59544e-05 0)
(1.0371 3.92912e-05 0)
(1.03676 1.00798e-05 0)
(1.03694 1.74851e-05 0)
(1.0368 5.4427e-06 0)
(1.03687 7.81674e-06 0)
(1.03682 2.73055e-06 0)
(1.03684 3.4885e-06 0)
(1.03682 1.34896e-06 0)
(1.03683 1.57453e-06 0)
(1.03682 7.54114e-07 0)
(1.03683 8.46371e-07 0)
(1.03682 5.11045e-07 0)
(1.03682 5.11658e-07 0)
(1.03682 3.86403e-07 0)
(1.03682 3.70977e-07 0)
(1.03682 3.29149e-07 0)
(1.03682 3.10254e-07 0)
(1.03682 3.13297e-07 0)
(1.03682 2.95458e-07 0)
(1.03682 3.24214e-07 0)
(1.03682 3.26983e-07 0)
(1.03682 3.49459e-07 0)
(1.03682 3.04179e-07 0)
(1.03682 3.32802e-07 0)
(1.03682 3.0604e-07 0)
(1.03682 3.1853e-07 0)
(1.03682 3.17027e-07 0)
(1.03682 3.45556e-07 0)
(1.03682 3.12298e-07 0)
(1.03682 3.42737e-07 0)
(1.03682 3.04873e-07 0)
(1.03682 3.02432e-07 0)
(1.03682 2.89157e-07 0)
(1.03682 2.90532e-07 0)
(1.03682 2.67956e-07 0)
(1.03682 2.96276e-07 0)
(1.03682 2.8617e-07 0)
(1.03682 3.07711e-07 0)
(1.03682 2.88798e-07 0)
(1.03682 3.19777e-07 0)
(1.03682 2.91721e-07 0)
(1.03682 3.18888e-07 0)
(1.03682 3.00065e-07 0)
(1.03682 3.25625e-07 0)
(1.03682 3.14226e-07 0)
(1.03682 3.33259e-07 0)
(1.03682 3.11686e-07 0)
(1.03682 3.25882e-07 0)
(1.03682 2.97373e-07 0)
(1.03682 3.17046e-07 0)
(1.03682 2.85022e-07 0)
(1.03682 3.08829e-07 0)
(1.03682 2.93141e-07 0)
(1.03682 3.20912e-07 0)
(1.03682 3.07381e-07 0)
(1.03682 3.23077e-07 0)
(1.03682 3.00139e-07 0)
(1.03682 3.14179e-07 0)
(1.03682 2.96188e-07 0)
(1.03682 3.05252e-07 0)
(1.03682 2.85742e-07 0)
(1.03682 3.04629e-07 0)
(1.03682 2.8915e-07 0)
(1.03682 3.07133e-07 0)
(1.03682 2.99021e-07 0)
(1.03682 3.10601e-07 0)
(1.03682 2.94488e-07 0)
(1.03682 3.03612e-07 0)
(1.03682 2.87475e-07 0)
(1.03682 2.97903e-07 0)
(1.03682 2.8591e-07 0)
(1.03682 3.01803e-07 0)
(1.03682 3.0052e-07 0)
(1.03682 3.18131e-07 0)
(1.03682 3.23482e-07 0)
(1.03682 3.71648e-07 0)
(1.03682 4.04999e-07 0)
(1.03682 5.43007e-07 0)
(1.03682 6.93789e-07 0)
(1.03682 1.191e-06 0)
(1.03682 1.71756e-06 0)
(1.03682 3.78575e-06 0)
(1.03681 3.96194e-06 0)
(1.03681 1.60087e-05 0)
(1.03675 3.726e-06 0)
(1.03681 0.000277977 0)
(1.03554 0.000851879 0)
(0.945037 0.059303 0)
(1.09591 0.00424745 0)
(1.00535 -0.000652756 0)
(1.06084 0.00166715 0)
(1.02589 -0.000418929 0)
(1.04732 0.000843811 0)
(1.03359 -0.000109794 0)
(1.04196 0.000393733 0)
(1.03652 -1.7024e-08 0)
(1.03978 0.00018935 0)
(1.03762 2.4166e-05 0)
(1.03889 9.16463e-05 0)
(1.03803 2.11636e-05 0)
(1.03852 4.40614e-05 0)
(1.03817 1.37557e-05 0)
(1.03836 2.11152e-05 0)
(1.03822 8.11375e-06 0)
(1.03829 1.03814e-05 0)
(1.03824 4.78604e-06 0)
(1.03827 5.47164e-06 0)
(1.03825 3.04785e-06 0)
(1.03826 3.22439e-06 0)
(1.03825 2.32767e-06 0)
(1.03825 2.39758e-06 0)
(1.03825 2.02833e-06 0)
(1.03825 2.01489e-06 0)
(1.03825 1.87632e-06 0)
(1.03825 1.85e-06 0)
(1.03825 1.80489e-06 0)
(1.03825 1.779e-06 0)
(1.03825 1.78388e-06 0)
(1.03825 1.76522e-06 0)
(1.03825 1.79777e-06 0)
(1.03825 1.80104e-06 0)
(1.03825 1.83123e-06 0)
(1.03825 1.77741e-06 0)
(1.03825 1.80881e-06 0)
(1.03825 1.78081e-06 0)
(1.03825 1.79401e-06 0)
(1.03825 1.79093e-06 0)
(1.03825 1.82528e-06 0)
(1.03825 1.78402e-06 0)
(1.03825 1.81889e-06 0)
(1.03825 1.77784e-06 0)
(1.03825 1.77197e-06 0)
(1.03825 1.75756e-06 0)
(1.03825 1.76032e-06 0)
(1.03825 1.73404e-06 0)
(1.03825 1.76665e-06 0)
(1.03825 1.7551e-06 0)
(1.03825 1.77898e-06 0)
(1.03825 1.75688e-06 0)
(1.03825 1.79269e-06 0)
(1.03825 1.76001e-06 0)
(1.03825 1.79111e-06 0)
(1.03825 1.7711e-06 0)
(1.03825 1.79998e-06 0)
(1.03825 1.78675e-06 0)
(1.03825 1.80986e-06 0)
(1.03825 1.78526e-06 0)
(1.03825 1.80114e-06 0)
(1.03825 1.76759e-06 0)
(1.03825 1.78999e-06 0)
(1.03825 1.75271e-06 0)
(1.03825 1.78022e-06 0)
(1.03825 1.7627e-06 0)
(1.03825 1.79461e-06 0)
(1.03825 1.7795e-06 0)
(1.03825 1.79787e-06 0)
(1.03825 1.77125e-06 0)
(1.03825 1.78645e-06 0)
(1.03825 1.76586e-06 0)
(1.03825 1.77661e-06 0)
(1.03825 1.75393e-06 0)
(1.03825 1.77486e-06 0)
(1.03825 1.7581e-06 0)
(1.03825 1.77846e-06 0)
(1.03825 1.76956e-06 0)
(1.03825 1.78355e-06 0)
(1.03825 1.76408e-06 0)
(1.03825 1.77468e-06 0)
(1.03825 1.75514e-06 0)
(1.03825 1.76716e-06 0)
(1.03825 1.75306e-06 0)
(1.03825 1.77053e-06 0)
(1.03825 1.77005e-06 0)
(1.03825 1.78981e-06 0)
(1.03825 1.79687e-06 0)
(1.03825 1.85109e-06 0)
(1.03825 1.88945e-06 0)
(1.03825 2.04316e-06 0)
(1.03825 2.21244e-06 0)
(1.03825 2.76782e-06 0)
(1.03825 3.35162e-06 0)
(1.03824 5.82017e-06 0)
(1.03824 5.97769e-06 0)
(1.03824 2.07732e-05 0)
(1.03819 6.67292e-06 0)
(1.03824 0.000322747 0)
(1.03725 0.000984961 0)
(0.943405 0.0544141 0)
(1.09633 0.00416731 0)
(1.00445 -0.000623442 0)
(1.06142 0.0016967 0)
(1.02567 -0.000407977 0)
(1.04779 0.000871667 0)
(1.03374 -0.000102923 0)
(1.04239 0.000409596 0)
(1.03684 6.2987e-06 0)
(1.04023 0.000198197 0)
(1.03802 2.88456e-05 0)
(1.03934 9.66164e-05 0)
(1.03847 2.41845e-05 0)
(1.03898 4.67988e-05 0)
(1.03863 1.55184e-05 0)
(1.03883 2.26462e-05 0)
(1.03869 9.0761e-06 0)
(1.03877 1.11696e-05 0)
(1.03871 5.2973e-06 0)
(1.03874 5.8732e-06 0)
(1.03872 3.31834e-06 0)
(1.03873 3.43548e-06 0)
(1.03872 2.48086e-06 0)
(1.03873 2.5264e-06 0)
(1.03872 2.12914e-06 0)
(1.03872 2.10053e-06 0)
(1.03872 1.95214e-06 0)
(1.03872 1.91536e-06 0)
(1.03872 1.86809e-06 0)
(1.03872 1.83578e-06 0)
(1.03872 1.84236e-06 0)
(1.03872 1.82326e-06 0)
(1.03872 1.85985e-06 0)
(1.03872 1.86296e-06 0)
(1.03872 1.90106e-06 0)
(1.03872 1.83995e-06 0)
(1.03872 1.87316e-06 0)
(1.03872 1.845e-06 0)
(1.03872 1.85902e-06 0)
(1.03872 1.85344e-06 0)
(1.03872 1.89323e-06 0)
(1.03872 1.84459e-06 0)
(1.03872 1.88263e-06 0)
(1.03872 1.8396e-06 0)
(1.03872 1.83056e-06 0)
(1.03872 1.81483e-06 0)
(1.03872 1.81934e-06 0)
(1.03872 1.7894e-06 0)
(1.03872 1.82567e-06 0)
(1.03872 1.8129e-06 0)
(1.03872 1.83875e-06 0)
(1.03872 1.81369e-06 0)
(1.03872 1.85404e-06 0)
(1.03872 1.8172e-06 0)
(1.03872 1.85209e-06 0)
(1.03872 1.83096e-06 0)
(1.03872 1.86286e-06 0)
(1.03872 1.84782e-06 0)
(1.03872 1.8747e-06 0)
(1.03872 1.84749e-06 0)
(1.03872 1.86477e-06 0)
(1.03872 1.82646e-06 0)
(1.03872 1.85142e-06 0)
(1.03872 1.80932e-06 0)
(1.03872 1.84019e-06 0)
(1.03872 1.82121e-06 0)
(1.03872 1.85689e-06 0)
(1.03872 1.84041e-06 0)
(1.03872 1.86109e-06 0)
(1.03872 1.8311e-06 0)
(1.03872 1.84718e-06 0)
(1.03872 1.82419e-06 0)
(1.03872 1.83644e-06 0)
(1.03872 1.81085e-06 0)
(1.03872 1.83356e-06 0)
(1.03872 1.81575e-06 0)
(1.03872 1.83864e-06 0)
(1.03872 1.82889e-06 0)
(1.03872 1.84534e-06 0)
(1.03872 1.82269e-06 0)
(1.03872 1.83434e-06 0)
(1.03872 1.81183e-06 0)
(1.03872 1.82502e-06 0)
(1.03872 1.80908e-06 0)
(1.03872 1.82768e-06 0)
(1.03872 1.82795e-06 0)
(1.03872 1.84959e-06 0)
(1.03872 1.85801e-06 0)
(1.03872 1.91703e-06 0)
(1.03872 1.959e-06 0)
(1.03872 2.12422e-06 0)
(1.03872 2.30843e-06 0)
(1.03872 2.90907e-06 0)
(1.03872 3.53151e-06 0)
(1.03872 6.24708e-06 0)
(1.03872 6.36989e-06 0)
(1.03871 2.34973e-05 0)
(1.03867 7.94628e-06 0)
(1.03872 0.000357168 0)
(1.03802 0.00108305 0)
(0.941755 0.0496226 0)
(1.09643 0.00401672 0)
(1.00337 -0.000593842 0)
(1.06166 0.00168422 0)
(1.02517 -0.000392523 0)
(1.04792 0.000876439 0)
(1.03358 -9.62064e-05 0)
(1.0425 0.00041404 0)
(1.03685 1.04491e-05 0)
(1.04035 0.000201016 0)
(1.03811 3.10188e-05 0)
(1.03948 9.80342e-05 0)
(1.03859 2.50054e-05 0)
(1.03913 4.70883e-05 0)
(1.03877 1.53927e-05 0)
(1.03898 2.21454e-05 0)
(1.03884 8.38084e-06 0)
(1.03892 1.02538e-05 0)
(1.03887 4.33045e-06 0)
(1.0389 4.77671e-06 0)
(1.03888 2.24218e-06 0)
(1.03889 2.30604e-06 0)
(1.03888 1.31555e-06 0)
(1.03888 1.33678e-06 0)
(1.03888 9.07282e-07 0)
(1.03888 8.61573e-07 0)
(1.03888 7.05928e-07 0)
(1.03888 6.59553e-07 0)
(1.03888 6.11242e-07 0)
(1.03888 5.72896e-07 0)
(1.03888 5.81036e-07 0)
(1.03888 5.61905e-07 0)
(1.03888 6.0279e-07 0)
(1.03888 6.05077e-07 0)
(1.03888 6.51206e-07 0)
(1.03888 5.84023e-07 0)
(1.03888 6.18189e-07 0)
(1.03888 5.90702e-07 0)
(1.03888 6.0581e-07 0)
(1.03888 5.96766e-07 0)
(1.03888 6.41812e-07 0)
(1.03888 5.86354e-07 0)
(1.03888 6.26444e-07 0)
(1.03888 5.82308e-07 0)
(1.03888 5.70649e-07 0)
(1.03888 5.53236e-07 0)
(1.03888 5.59923e-07 0)
(1.03888 5.26327e-07 0)
(1.03888 5.65641e-07 0)
(1.03888 5.51719e-07 0)
(1.03888 5.79433e-07 0)
(1.03888 5.51498e-07 0)
(1.03888 5.96224e-07 0)
(1.03888 5.55709e-07 0)
(1.03888 5.94199e-07 0)
(1.03888 5.72008e-07 0)
(1.03888 6.06603e-07 0)
(1.03888 5.89832e-07 0)
(1.03888 6.2003e-07 0)
(1.03888 5.90564e-07 0)
(1.03888 6.08981e-07 0)
(1.03888 5.66184e-07 0)
(1.03888 5.93646e-07 0)
(1.03888 5.47255e-07 0)
(1.03888 5.81018e-07 0)
(1.03888 5.60937e-07 0)
(1.03888 6.00072e-07 0)
(1.03888 5.82413e-07 0)
(1.03888 6.05051e-07 0)
(1.03888 5.7198e-07 0)
(1.03888 5.88785e-07 0)
(1.03888 5.63532e-07 0)
(1.03888 5.77077e-07 0)
(1.03888 5.48995e-07 0)
(1.03888 5.73057e-07 0)
(1.03888 5.54539e-07 0)
(1.03888 5.80024e-07 0)
(1.03888 5.69336e-07 0)
(1.03888 5.88194e-07 0)
(1.03888 5.62619e-07 0)
(1.03888 5.74905e-07 0)
(1.03888 5.49852e-07 0)
(1.03888 5.63837e-07 0)
(1.03888 5.46268e-07 0)
(1.03888 5.65644e-07 0)
(1.03888 5.66539e-07 0)
(1.03888 5.89733e-07 0)
(1.03888 5.99151e-07 0)
(1.03888 6.62114e-07 0)
(1.03888 7.06451e-07 0)
(1.03888 8.79179e-07 0)
(1.03888 1.08192e-06 0)
(1.03888 1.72426e-06 0)
(1.03888 2.36519e-06 0)
(1.03888 5.15242e-06 0)
(1.03888 5.23046e-06 0)
(1.03887 2.41423e-05 0)
(1.03885 7.5559e-06 0)
(1.03889 0.000378848 0)
(1.03847 0.00114312 0)
(0.940246 0.0449479 0)
(1.09644 0.00381103 0)
(1.0023 -0.000561129 0)
(1.06177 0.00163735 0)
(1.02462 -0.000371769 0)
(1.04793 0.000862223 0)
(1.03334 -8.82109e-05 0)
(1.0425 0.000409582 0)
(1.03675 1.42013e-05 0)
(1.04036 0.000199855 0)
(1.03809 3.28587e-05 0)
(1.03951 9.78392e-05 0)
(1.03861 2.58256e-05 0)
(1.03916 4.69789e-05 0)
(1.03881 1.55816e-05 0)
(1.03903 2.18728e-05 0)
(1.03889 8.19804e-06 0)
(1.03897 9.84318e-06 0)
(1.03892 3.96242e-06 0)
(1.03895 4.29258e-06 0)
(1.03893 1.81787e-06 0)
(1.03894 1.82979e-06 0)
(1.03893 8.57023e-07 0)
(1.03894 8.56291e-07 0)
(1.03893 4.18909e-07 0)
(1.03894 3.58476e-07 0)
(1.03893 2.00633e-07 0)
(1.03894 1.45674e-07 0)
(1.03893 9.65077e-08 0)
(1.03894 5.16329e-08 0)
(1.03893 6.16118e-08 0)
(1.03893 4.41394e-08 0)
(1.03893 8.81135e-08 0)
(1.03893 8.88634e-08 0)
(1.03893 1.43833e-07 0)
(1.03893 7.10794e-08 0)
(1.03893 1.05484e-07 0)
(1.03893 7.92267e-08 0)
(1.03893 9.58766e-08 0)
(1.03893 8.22584e-08 0)
(1.03893 1.33456e-07 0)
(1.03893 7.07599e-08 0)
(1.03893 1.12617e-07 0)
(1.03893 6.7337e-08 0)
(1.03893 5.35537e-08 0)
(1.03893 3.42573e-08 0)
(1.03893 4.3263e-08 0)
(1.03893 6.98094e-09 0)
(1.03893 4.77807e-08 0)
(1.03893 3.29962e-08 0)
(1.03893 6.2349e-08 0)
(1.03893 3.18167e-08 0)
(1.03893 8.08776e-08 0)
(1.03893 3.69796e-08 0)
(1.03893 7.89622e-08 0)
(1.03893 5.5718e-08 0)
(1.03893 9.27178e-08 0)
(1.03893 7.42758e-08 0)
(1.03893 1.07334e-07 0)
(1.03893 7.58374e-08 0)
(1.03893 9.52354e-08 0)
(1.03893 4.85151e-08 0)
(1.03893 7.81085e-08 0)
(1.03893 2.90617e-08 0)
(1.03893 6.41678e-08 0)
(1.03893 4.33852e-08 0)
(1.03893 8.5668e-08 0)
(1.03893 6.68659e-08 0)
(1.03893 9.14342e-08 0)
(1.03893 5.52973e-08 0)
(1.03893 7.2824e-08 0)
(1.03893 4.54565e-08 0)
(1.03893 6.00522e-08 0)
(1.03893 3.03848e-08 0)
(1.03893 5.49503e-08 0)
(1.03893 3.60419e-08 0)
(1.03893 6.40568e-08 0)
(1.03893 5.23512e-08 0)
(1.03893 7.35609e-08 0)
(1.03893 4.52698e-08 0)
(1.03893 5.79242e-08 0)
(1.03893 3.06394e-08 0)
(1.03893 4.51387e-08 0)
(1.03893 2.60916e-08 0)
(1.03893 4.59496e-08 0)
(1.03893 4.72771e-08 0)
(1.03893 7.17625e-08 0)
(1.03893 8.1805e-08 0)
(1.03893 1.49289e-07 0)
(1.03893 1.9513e-07 0)
(1.03893 3.71676e-07 0)
(1.03894 5.7804e-07 0)
(1.03893 1.23315e-06 0)
(1.03894 1.84635e-06 0)
(1.03893 4.66284e-06 0)
(1.03893 4.69786e-06 0)
(1.03893 2.48826e-05 0)
(1.03891 7.63457e-06 0)
(1.03894 0.000389651 0)
(1.0388 0.00116858 0)
(0.938915 0.0403796 0)
(1.09641 0.00356013 0)
(1.00131 -0.000524475 0)
(1.06183 0.00156102 0)
(1.02408 -0.000346447 0)
(1.04791 0.000831118 0)
(1.03308 -7.9383e-05 0)
(1.04246 0.00039701 0)
(1.03663 1.73606e-05 0)
(1.04033 0.000194838 0)
(1.03804 3.41271e-05 0)
(1.0395 9.59454e-05 0)
(1.03859 2.64193e-05 0)
(1.03917 4.63088e-05 0)
(1.03881 1.58677e-05 0)
(1.03904 2.16367e-05 0)
(1.0389 8.31602e-06 0)
(1.03899 9.73715e-06 0)
(1.03893 3.98266e-06 0)
(1.03897 4.21217e-06 0)
(1.03894 1.78738e-06 0)
(1.03896 1.75495e-06 0)
(1.03895 8.11471e-07 0)
(1.03895 7.9201e-07 0)
(1.03895 3.73303e-07 0)
(1.03895 3.01313e-07 0)
(1.03895 1.46994e-07 0)
(1.03895 8.55562e-08 0)
(1.03895 3.78949e-08 0)
(1.03895 -1.21202e-08 0)
(1.03895 7.00491e-11 0)
(1.03895 -1.70519e-08 0)
(1.03895 3.21633e-08 0)
(1.03895 3.03605e-08 0)
(1.03895 9.31869e-08 0)
(1.03895 1.72809e-08 0)
(1.03895 5.159e-08 0)
(1.03895 2.65424e-08 0)
(1.03895 4.55603e-08 0)
(1.03895 2.58452e-08 0)
(1.03895 8.18675e-08 0)
(1.03895 1.38357e-08 0)
(1.03895 5.58742e-08 0)
(1.03895 1.07819e-08 0)
(1.03895 -4.33344e-09 0)
(1.03895 -2.61337e-08 0)
(1.03895 -1.43465e-08 0)
(1.03895 -5.36023e-08 0)
(1.03895 -1.19578e-08 0)
(1.03895 -2.68641e-08 0)
(1.03895 3.52468e-09 0)
(1.03895 -2.894e-08 0)
(1.03895 2.41494e-08 0)
(1.03895 -2.29734e-08 0)
(1.03895 2.28152e-08 0)
(1.03895 -1.76575e-09 0)
(1.03895 3.76332e-08 0)
(1.03895 1.71323e-08 0)
(1.03895 5.30499e-08 0)
(1.03895 1.92246e-08 0)
(1.03895 3.95708e-08 0)
(1.03895 -1.05481e-08 0)
(1.03895 2.07725e-08 0)
(1.03895 -3.1008e-08 0)
(1.03895 5.93844e-09 0)
(1.03895 -1.49859e-08 0)
(1.03895 3.00655e-08 0)
(1.03895 9.65535e-09 0)
(1.03895 3.63133e-08 0)
(1.03895 -3.03614e-09 0)
(1.03895 1.55843e-08 0)
(1.03895 -1.35688e-08 0)
(1.03895 1.71057e-09 0)
(1.03895 -2.97313e-08 0)
(1.03895 -4.2502e-09 0)
(1.03895 -2.34245e-08 0)
(1.03895 6.65961e-09 0)
(1.03895 -6.12828e-09 0)
(1.03895 1.78399e-08 0)
(1.03895 -1.34408e-08 0)
(1.03895 -2.16409e-10 0)
(1.03895 -2.97383e-08 0)
(1.03895 -1.50732e-08 0)
(1.03895 -3.51143e-08 0)
(1.03895 -1.53845e-08 0)
(1.03895 -1.3823e-08 0)
(1.03895 1.2059e-08 0)
(1.03895 2.23562e-08 0)
(1.03895 9.14031e-08 0)
(1.03895 1.37073e-07 0)
(1.03895 3.1265e-07 0)
(1.03895 5.06602e-07 0)
(1.03895 1.14463e-06 0)
(1.03895 1.73637e-06 0)
(1.03895 4.57315e-06 0)
(1.03895 4.57028e-06 0)
(1.03895 2.54653e-05 0)
(1.03895 7.97215e-06 0)
(1.03897 0.000389875 0)
(1.03909 0.00116171 0)
(0.937761 0.0359031 0)
(1.09638 0.00327123 0)
(1.00042 -0.000483821 0)
(1.06185 0.00145899 0)
(1.02358 -0.000317599 0)
(1.04787 0.000784572 0)
(1.03282 -7.03325e-05 0)
(1.04241 0.000376714 0)
(1.03651 1.94957e-05 0)
(1.04029 0.00018587 0)
(1.03798 3.43576e-05 0)
(1.03948 9.20559e-05 0)
(1.03857 2.6323e-05 0)
(1.03916 4.46851e-05 0)
(1.0388 1.57942e-05 0)
(1.03904 2.09948e-05 0)
(1.0389 8.29532e-06 0)
(1.03899 9.49868e-06 0)
(1.03893 3.98572e-06 0)
(1.03897 4.12727e-06 0)
(1.03895 1.79139e-06 0)
(1.03896 1.72298e-06 0)
(1.03895 8.17675e-07 0)
(1.03896 7.83345e-07 0)
(1.03896 3.80893e-07 0)
(1.03896 2.97546e-07 0)
(1.03896 1.50011e-07 0)
(1.03896 8.43779e-08 0)
(1.03896 4.06109e-08 0)
(1.03896 -1.21766e-08 0)
(1.03896 2.28015e-09 0)
(1.03896 -1.61456e-08 0)
(1.03896 4.06938e-08 0)
(1.03896 3.59059e-08 0)
(1.03896 1.04684e-07 0)
(1.03896 2.86317e-08 0)
(1.03896 6.23089e-08 0)
(1.03896 3.85772e-08 0)
(1.03896 6.05266e-08 0)
(1.03896 3.37108e-08 0)
(1.03896 9.23736e-08 0)
(1.03896 2.13985e-08 0)
(1.03896 6.18381e-08 0)
(1.03896 1.85466e-08 0)
(1.03896 2.68742e-09 0)
(1.03896 -2.17702e-08 0)
(1.03896 -7.19259e-09 0)
(1.03896 -4.97799e-08 0)
(1.03896 -7.40302e-09 0)
(1.03896 -2.22132e-08 0)
(1.03896 9.16661e-09 0)
(1.03896 -2.49245e-08 0)
(1.03896 3.15919e-08 0)
(1.03896 -1.79536e-08 0)
(1.03896 3.13282e-08 0)
(1.03896 5.39371e-09 0)
(1.03896 4.70321e-08 0)
(1.03896 2.45625e-08 0)
(1.03896 6.2812e-08 0)
(1.03896 2.68874e-08 0)
(1.03896 4.80969e-08 0)
(1.03896 -5.35812e-09 0)
(1.03896 2.78553e-08 0)
(1.03896 -2.74188e-08 0)
(1.03896 1.22047e-08 0)
(1.03896 -8.55179e-09 0)
(1.03896 3.89526e-08 0)
(1.03896 1.68974e-08 0)
(1.03896 4.52603e-08 0)
(1.03896 3.15426e-09 0)
(1.03896 2.29417e-08 0)
(1.03896 -7.84182e-09 0)
(1.03896 7.85536e-09 0)
(1.03896 -2.5864e-08 0)
(1.03896 1.1563e-09 0)
(1.03896 -1.83252e-08 0)
(1.03896 1.3968e-08 0)
(1.03896 3.62607e-11 0)
(1.03896 2.66267e-08 0)
(1.03896 -7.37587e-09 0)
(1.03896 6.20477e-09 0)
(1.03896 -2.53088e-08 0)
(1.03896 -1.06028e-08 0)
(1.03896 -3.14907e-08 0)
(1.03896 -1.20874e-08 0)
(1.03896 -1.04996e-08 0)
(1.03896 1.63801e-08 0)
(1.03896 2.65319e-08 0)
(1.03896 9.38579e-08 0)
(1.03896 1.37629e-07 0)
(1.03896 3.07703e-07 0)
(1.03896 4.92539e-07 0)
(1.03896 1.11008e-06 0)
(1.03896 1.67689e-06 0)
(1.03896 4.47331e-06 0)
(1.03896 4.43811e-06 0)
(1.03896 2.54062e-05 0)
(1.03897 8.13503e-06 0)
(1.03898 0.000379693 0)
(1.03934 0.00112462 0)
(0.936773 0.0315055 0)
(1.09635 0.00295065 0)
(0.99964 -0.000439113 0)
(1.06187 0.00133483 0)