/*--------------------------------*- C++ -*----------------------------------*\
| =========                 |                                                 |
| \\      /  F ield         | OpenFOAM: The Open Source CFD Toolbox           |
|  \\    /   O peration     | Version:  v1906                                 |
|   \\  /    A nd           | Web:      www.OpenFOAM.com                      |
|    \\/     M anipulation  |                                                 |
\*---------------------------------------------------------------------------*/
FoamFile
{
    version     2.0;
    format      ascii;
    class       volScalarField;
    location    "1.5";
    object      Uy;
}
// * * * * * * * * * * * * * * * * * * * * * * * * * * * * * * * * * * * * * //

dimensions      [0 1 -1 0 0 0 0];


internalField   nonuniform List<scalar> 
4000
(
0.0732088
0.00685352
-0.000524482
-0.00107163
-0.00130998
-0.00121027
-0.00120154
-0.00117691
-0.0011797
-0.00118028
-0.00118461
-0.00118752
-0.00119055
-0.00119288
-0.00119487
-0.00119647
-0.00119782
-0.00119894
-0.0011999
-0.00120069
-0.00120134
-0.00120188
-0.00120236
-0.00120277
-0.00120312
-0.00120343
-0.00120366
-0.00120388
-0.00120402
-0.00120416
-0.00120427
-0.00120438
-0.00120446
-0.00120452
-0.00120457
-0.0012046
-0.00120462
-0.00120466
-0.00120468
-0.00120471
-0.00120471
-0.00120472
-0.00120472
-0.00120472
-0.00120473
-0.00120474
-0.00120473
-0.00120474
-0.00120473
-0.00120474
-0.00120473
-0.00120474
-0.00120473
-0.00120474
-0.00120473
-0.00120473
-0.00120473
-0.00120474
-0.00120474
-0.00120475
-0.00120474
-0.00120474
-0.00120473
-0.00120474
-0.00120474
-0.00120474
-0.00120474
-0.00120475
-0.00120474
-0.00120474
-0.00120474
-0.00120474
-0.00120474
-0.00120474
-0.00120473
-0.00120474
-0.00120473
-0.00120473
-0.00120473
-0.00120473
-0.00120472
-0.00120472
-0.00120471
-0.00120471
-0.00120469
-0.00120467
-0.00120463
-0.00120459
-0.00120453
-0.00120445
-0.00120435
-0.00120426
-0.0012042
-0.00120432
-0.00120471
-0.00120465
-0.00120166
-0.00118546
-0.00116682
-0.00130297
0.171997
0.0240843
0.00283798
8.23631e-05
-0.000770352
-0.000457966
-0.000394593
-0.000302305
-0.000304272
-0.000305856
-0.000320763
-0.000332455
-0.000344292
-0.000353531
-0.000361403
-0.00036788
-0.000373454
-0.000378116
-0.000382115
-0.00038548
-0.000388351
-0.000390769
-0.000392885
-0.000394749
-0.000396297
-0.000397679
-0.000398759
-0.00039972
-0.00040045
-0.000401096
-0.000401644
-0.000402102
-0.000402478
-0.000402768
-0.000402989
-0.000403179
-0.000403301
-0.000403448
-0.000403531
-0.000403636
-0.000403663
-0.000403701
-0.000403707
-0.000403741
-0.000403753
-0.000403782
-0.000403775
-0.000403796
-0.000403787
-0.000403819
-0.000403806
-0.000403827
-0.000403809
-0.000403821
-0.000403798
-0.00040381
-0.000403804
-0.000403828
-0.000403821
-0.000403839
-0.00040382
-0.000403831
-0.000403809
-0.000403827
-0.000403816
-0.000403834
-0.000403822
-0.000403834
-0.000403817
-0.000403823
-0.000403806
-0.000403819
-0.000403804
-0.000403814
-0.0004038
-0.00040381
-0.000403794
-0.000403799
-0.000403784
-0.000403791
-0.000403773
-0.000403767
-0.000403733
-0.000403704
-0.00040364
-0.000403563
-0.00040343
-0.000403265
-0.000403023
-0.000402723
-0.000402317
-0.000401899
-0.000401559
-0.000401745
-0.000402248
-0.000400164
-0.000382633
-0.000315995
-0.00021298
-0.000457858
0.195346
0.0389516
0.00767956
0.00116759
-0.000439878
9.11729e-06
0.000173
0.000349329
0.000358515
0.000354424
0.000324902
0.000299842
0.000275547
0.000256576
0.00024046
0.000227094
0.000215777
0.000206314
0.000198197
0.000191334
0.000185421
0.00018041
0.000176022
0.000172169
0.000168964
0.000166109
0.000163839
0.000161818
0.000160226
0.00015884
0.000157677
0.000156726
0.000155936
0.000155316
0.000154818
0.000154388
0.000154092
0.000153785
0.000153611
0.000153417
0.00015335
0.000153265
0.000153235
0.000153173
0.000153147
0.000153096
0.000153094
0.000153043
0.000153045
0.000152986
0.000153001
0.000152963
0.000152987
0.000152967
0.000153
0.000152983
0.000152998
0.000152967
0.000152984
0.000152956
0.000152982
0.000152957
0.000152987
0.000152957
0.000152976
0.000152952
0.000152977
0.000152964
0.000152995
0.000152985
0.000153013
0.000152995
0.000153019
0.000153002
0.000153022
0.000153004
0.000153026
0.000153016
0.000153038
0.00015303
0.000153063
0.000153081
0.000153147
0.000153212
0.000153341
0.000153502
0.000153766
0.000154106
0.000154601
0.000155229
0.000156077
0.000156977
0.000157811
0.000157827
0.000158245
0.000165067
0.000210324
0.000360041
0.000653235
0.000606956
0.187104
0.0487172
0.0120555
0.00171761
-0.000560359
-6.94305e-05
0.000207615
0.000462683
0.000489121
0.000482561
0.000439763
0.000402119
0.000365941
0.000336796
0.000311877
0.000291056
0.000274116
0.000259949
0.000247787
0.000237447
0.000228487
0.000220837
0.000214173
0.000208359
0.000203505
0.000199187
0.000195708
0.000192621
0.000190143
0.000187998
0.000186209
0.000184751
0.00018353
0.000182553
0.000181756
0.000181065
0.000180578
0.000180103
0.000179832
0.000179547
0.00017943
0.000179295
0.000179238
0.00017915
0.000179109
0.000179032
0.000179015
0.00017893
0.000178921
0.000178834
0.000178848
0.000178795
0.000178826
0.000178799
0.000178845
0.000178825
0.000178852
0.000178816
0.00017884
0.0001788
0.000178827
0.000178788
0.000178823
0.000178785
0.000178814
0.000178788
0.000178826
0.000178814
0.000178856
0.000178841
0.000178879
0.000178857
0.000178889
0.000178865
0.000178891
0.000178866
0.000178894
0.000178879
0.00017891
0.000178902
0.00017895
0.000178983
0.000179082
0.000179185
0.000179382
0.000179632
0.000180032
0.000180556
0.000181317
0.000182294
0.000183612
0.000185048
0.000186533
0.000187111
0.000189577
0.00020312
0.000283727
0.000530305
0.00109574
0.00141741
0.170944
0.0545047
0.0154867
0.00206003
-0.000747162
-0.000265427
0.000117966
0.000433252
0.000476901
0.000468569
0.000417016
0.000370139
0.000325009
0.000287677
0.00025582
0.000229142
0.00020724
0.000188824
0.000172945
0.000159327
0.000147414
0.000137107
0.000128267
0.000120715
0.000114379
0.000108737
0.000104142
0.000100063
9.67679e-05
9.39354e-05
9.15809e-05
8.96564e-05
8.80376e-05
8.67211e-05
8.56436e-05
8.47113e-05
8.4042e-05
8.34079e-05
8.30393e-05
8.26678e-05
8.25021e-05
8.23184e-05
8.22372e-05
8.21246e-05
8.20681e-05
8.19628e-05
8.19279e-05
8.18099e-05
8.17884e-05
8.16771e-05
8.16895e-05
8.16247e-05
8.16633e-05
8.16332e-05
8.16897e-05
8.16687e-05
8.17054e-05
8.16655e-05
8.16933e-05
8.16401e-05
8.16672e-05
8.16141e-05
8.16548e-05
8.16108e-05
8.16499e-05
8.16227e-05
8.16732e-05
8.16621e-05
8.17132e-05
8.16952e-05
8.17413e-05
8.17155e-05
8.17542e-05
8.17246e-05
8.17545e-05
8.17248e-05
8.17579e-05
8.17401e-05
8.17782e-05
8.17723e-05
8.18346e-05
8.18806e-05
8.20099e-05
8.2149e-05
8.24067e-05
8.27369e-05
8.32593e-05
8.39486e-05
8.49479e-05
8.62388e-05
8.79854e-05
8.99403e-05
9.21601e-05
9.36295e-05
9.90703e-05
0.000120592
0.00023993
0.000575282
0.00144288
0.00215099
0.153475
0.0575327
0.0180261
0.00236459
-0.000844179
-0.000404623
7.25486e-05
0.000430627
0.000490058
0.000480507
0.000422468
0.000368166
0.000316285
0.000273252
0.000236841
0.00020642
0.000180709
0.000159029
0.000140331
0.000124255
0.00011018
9.79682e-05
8.74401e-05
7.8382e-05
7.07147e-05
6.38495e-05
5.81657e-05
5.30806e-05
4.90003e-05
4.55628e-05
4.2709e-05
4.03585e-05
3.83789e-05
3.67577e-05
3.54348e-05
3.42927e-05
3.34627e-05
3.2688e-05
3.2229e-05
3.17778e-05
3.15653e-05
3.13371e-05
3.12337e-05
3.10976e-05
3.10274e-05
3.0894e-05
3.08412e-05
3.06936e-05
3.06612e-05
3.05292e-05
3.05398e-05
3.04652e-05
3.05118e-05
3.04787e-05
3.05451e-05
3.05222e-05
3.05681e-05
3.0523e-05
3.05534e-05
3.04879e-05
3.05141e-05
3.04487e-05
3.04944e-05
3.04465e-05
3.04954e-05
3.04671e-05
3.05282e-05
3.05174e-05
3.05773e-05
3.05557e-05
3.0609e-05
3.05802e-05
3.06244e-05
3.05894e-05
3.06233e-05
3.05892e-05
3.06272e-05
3.06069e-05
3.06521e-05
3.06478e-05
3.07232e-05
3.07808e-05
3.09363e-05
3.11058e-05
3.14153e-05
3.1813e-05
3.24372e-05
3.32638e-05
3.44623e-05
3.60134e-05
3.813e-05
4.05793e-05
4.36001e-05
4.62221e-05
5.53967e-05
8.55742e-05
0.00024062
0.000654168
0.0018186
0.00286292
0.136371
0.0584945
0.0197492
0.00262363
-0.000874043
-0.000494034
5.81997e-05
0.000447258
0.000520772
0.000510555
0.000447794
0.000387649
0.00033045
0.000282871
0.000242723
0.000209203
0.000180868
0.000157012
0.000136498
0.000118908
0.000103586
9.03628e-05
7.87824e-05
6.86218e-05
5.99782e-05
5.22284e-05
4.57688e-05
3.99867e-05
3.53004e-05
3.13188e-05
2.79893e-05
2.52002e-05
2.28558e-05
2.09684e-05
1.94325e-05
1.8104e-05
1.71392e-05
1.62468e-05
1.57095e-05
1.51891e-05
1.49345e-05
1.46677e-05
1.45439e-05
1.4386e-05
1.43039e-05
1.41452e-05
1.40767e-05
1.39038e-05
1.3862e-05
1.37136e-05
1.37226e-05
1.36401e-05
1.36937e-05
1.36576e-05
1.37312e-05
1.37051e-05
1.37578e-05
1.37078e-05
1.37404e-05
1.36649e-05
1.36909e-05
1.36152e-05
1.36646e-05
1.36137e-05
1.36711e-05
1.36421e-05
1.37121e-05
1.37018e-05
1.37702e-05
1.37461e-05
1.38054e-05
1.37738e-05
1.38225e-05
1.37826e-05
1.38195e-05
1.37811e-05
1.38231e-05
1.38004e-05
1.38517e-05
1.38485e-05
1.39344e-05
1.40015e-05
1.41787e-05
1.4373e-05
1.47239e-05
1.51747e-05
1.58785e-05
1.68105e-05
1.81652e-05
1.99363e-05
2.23749e-05
2.53412e-05
2.92695e-05
3.32352e-05
4.61969e-05
8.41847e-05
0.000269217
0.000751765
0.00217966
0.00349282
0.120364
0.0578624
0.020729
0.0028108
-0.0008719
-0.000556724
4.99606e-05
0.000460404
0.00054573
0.000535435
0.000469986
0.000406
0.000345266
0.000294525
0.000251721
0.000215951
0.000185811
0.000160438
0.00013863
0.000119919
0.000103633
8.95717e-05
7.72392e-05
6.64017e-05
5.71868e-05
4.89517e-05
4.21012e-05
3.60112e-05
3.09898e-05
2.66366e-05
2.29826e-05
1.99014e-05
1.73032e-05
1.51764e-05
1.34361e-05
1.19067e-05
1.0831e-05
9.84072e-06
9.23474e-06
8.65692e-06
8.3672e-06
8.06954e-06
7.92807e-06
7.7506e-06
7.65857e-06
7.47883e-06
7.39813e-06
7.20476e-06
7.15566e-06
6.99491e-06
7.00322e-06
6.91482e-06
6.97443e-06
6.93558e-06
7.01362e-06
6.98302e-06
7.03956e-06
6.98463e-06
7.01935e-06
6.93627e-06
6.9634e-06
6.8798e-06
6.9318e-06
6.87835e-06
6.94285e-06
6.9134e-06
6.9904e-06
6.9809e-06
7.05786e-06
7.03269e-06
7.09692e-06
7.06266e-06
7.11452e-06
7.07029e-06
7.10904e-06
7.06658e-06
7.11113e-06
7.08627e-06
7.14204e-06
7.13933e-06
7.23272e-06
7.30647e-06
7.50026e-06
7.71348e-06
8.09519e-06
8.58402e-06
9.34663e-06
1.03597e-05
1.18344e-05
1.38304e-05
1.65749e-05
1.99588e-05
2.46613e-05
2.99146e-05
4.62048e-05
9.0585e-05
0.000301551
0.000838732
0.00247831
0.00399109
0.105744
0.0560071
0.021053
0.00291919
-0.000852071
-0.00060018
4.17581e-05
0.000463389
0.000557771
0.000547918
0.00048176
0.000415974
0.000353589
0.000301254
0.000257106
0.000220165
0.000189067
0.00016287
0.000140341
0.000120977
0.000104105
8.95062e-05
7.67031e-05
6.54506e-05
5.58775e-05
4.73272e-05
4.02037e-05
3.38828e-05
2.86572e-05
2.41303e-05
2.03397e-05
1.7159e-05
1.44685e-05
1.21957e-05
1.03359e-05
8.69024e-06
7.52345e-06
6.44073e-06
5.76154e-06
5.13399e-06
4.81645e-06
4.49444e-06
4.33733e-06
4.1422e-06
4.0426e-06
3.84745e-06
3.75861e-06
3.54981e-06
3.49556e-06
3.32651e-06
3.33514e-06
3.24315e-06
3.30779e-06
3.26675e-06
3.3468e-06
3.31074e-06
3.36824e-06
3.30835e-06
3.34474e-06
3.25658e-06
3.28611e-06
3.19727e-06
3.25091e-06
3.19544e-06
3.26553e-06
3.23629e-06
3.31867e-06
3.31007e-06
3.395e-06
3.37031e-06
3.43843e-06
3.40177e-06
3.45554e-06
3.40772e-06
3.44742e-06
3.40111e-06
3.44663e-06
3.41927e-06
3.47789e-06
3.47478e-06
3.57237e-06
3.64947e-06
3.85444e-06
4.08043e-06
4.48409e-06
4.99965e-06
5.80918e-06
6.90248e-06
8.47457e-06
1.05917e-05
1.35225e-05
1.71412e-05
2.23829e-05
2.87413e-05
4.80328e-05
9.78354e-05
0.000328866
0.000903533
0.00269434
0.00433963
0.0925016
0.0532114
0.0208111
0.00295114
-0.000819293
-0.000625574
3.33159e-05
0.000456048
0.000556491
0.000547472
0.00048233
0.000416592
0.00035429
0.000301836
0.000257592
0.000220521
0.000189309
0.000162999
0.000140357
0.000120867
0.00010387
8.91306e-05
7.61911e-05
6.47942e-05
5.50886e-05
4.64131e-05
3.91651e-05
3.27277e-05
2.73988e-05
2.27905e-05
1.89264e-05
1.56822e-05
1.29464e-05
1.06323e-05
8.75705e-06
7.10523e-06
5.89574e-06
4.76773e-06
4.05397e-06
3.39401e-06
3.0535e-06
2.7078e-06
2.53488e-06
2.31964e-06
2.215e-06
2.00887e-06
1.91602e-06
1.69682e-06
1.63965e-06
1.46624e-06
1.47635e-06
1.38286e-06
1.45148e-06
1.40893e-06
1.48903e-06
1.44726e-06
1.5034e-06
1.43857e-06
1.47597e-06
1.38461e-06
1.41744e-06
1.32598e-06
1.38079e-06
1.32398e-06
1.39844e-06
1.37019e-06
1.45647e-06
1.44857e-06
1.54036e-06
1.51739e-06
1.58884e-06
1.55009e-06
1.60484e-06
1.55414e-06
1.59408e-06
1.54415e-06
1.58904e-06
1.55864e-06
1.61842e-06
1.61393e-06
1.71257e-06
1.78946e-06
2.00073e-06
2.23464e-06
2.65856e-06
3.19846e-06
4.03471e-06
5.15347e-06
6.75747e-06
8.86089e-06
1.18358e-05
1.5614e-05
2.13228e-05
2.86539e-05
5.04654e-05
0.000104271
0.000348182
0.000942767
0.00282183
0.00453645
0.0804955
0.0496859
0.0200851
0.00291069
-0.000775844
-0.000633301
2.47582e-05
0.000439133
0.000542532
0.000534605
0.000471945
0.000407888
0.000347208
0.000295954
0.000252727
0.000216459
0.000185911
0.000160145
0.000137958
0.000118836
0.000102149
8.76516e-05
7.49088e-05
6.3651e-05
5.40589e-05
4.54764e-05
3.82914e-05
3.18993e-05
2.65946e-05
2.20055e-05
1.81429e-05
1.48876e-05
1.21487e-05
9.83397e-06
7.97018e-06
6.32129e-06
5.11925e-06
4.00265e-06
3.304e-06
2.6422e-06
2.29385e-06
1.94015e-06
1.75921e-06
1.53211e-06
1.42483e-06
1.20842e-06
1.1137e-06
8.86887e-07
8.29409e-07
6.551e-07
6.67864e-07
5.74397e-07
6.45813e-07
6.02066e-07
6.81022e-07
6.33841e-07
6.87298e-07
6.1751e-07
6.55246e-07
5.6186e-07
5.98295e-07
5.06322e-07
5.62444e-07
5.05085e-07
5.83176e-07
5.56648e-07
6.45657e-07
6.37867e-07
7.35026e-07
7.14633e-07
7.89088e-07
7.48833e-07
8.03981e-07
7.51094e-07
7.9074e-07
7.37479e-07
7.80281e-07
7.4627e-07
8.05512e-07
7.98643e-07
8.95907e-07
9.69527e-07
1.18621e-06
1.42553e-06
1.85581e-06
2.39621e-06
3.22183e-06
4.30037e-06
5.86764e-06
7.93777e-06
1.09151e-05
1.47917e-05
2.08457e-05
2.89311e-05
5.25329e-05
0.000108588
0.0003578
0.000955138
0.00286042
0.00458627
0.0695546
0.0455902
0.018947
0.00280237
-0.000723041
-0.000623771
1.63767e-05
0.000413574
0.000516792
0.000510089
0.000451153
0.000390211
0.000332508
0.000283623
0.000242405
0.000207771
0.000178585
0.000153953
0.000132729
0.00011442
9.84295e-05
8.45191e-05
7.22802e-05
6.1433e-05
5.21906e-05
4.39118e-05
3.69742e-05
3.07898e-05
2.56445e-05
2.11897e-05
1.74263e-05
1.42409e-05
1.15637e-05
9.29529e-06
7.47696e-06
5.85233e-06
4.68011e-06
3.58956e-06
2.91357e-06
2.26978e-06
1.93065e-06
1.58775e-06
1.40946e-06
1.18383e-06
1.07871e-06
8.61319e-07
7.71299e-07
5.41796e-07
4.85979e-07
3.13686e-07
3.30174e-07
2.37591e-07
3.10439e-07
2.65262e-07
3.42477e-07
2.90667e-07
3.41245e-07
2.66305e-07
3.03825e-07
2.08846e-07
2.4873e-07
1.57937e-07
2.15679e-07
1.58883e-07
2.40068e-07
2.15696e-07
3.06816e-07
2.98373e-07
3.99411e-07
3.81808e-07
4.60387e-07
4.18228e-07
4.74442e-07
4.19143e-07
4.58627e-07
4.01746e-07
4.41503e-07
4.03034e-07
4.61112e-07
4.50143e-07
5.46495e-07
6.14284e-07
8.27536e-07
1.06141e-06
1.47639e-06
1.98967e-06
2.78137e-06
3.81351e-06
5.32303e-06
7.33288e-06
1.02571e-05
1.41349e-05
2.0348e-05
2.88872e-05
5.34049e-05
0.000109853
0.000356816
0.000940464
0.00281302
0.00449748
0.0595132
0.0410472
0.0174597
0.00263123
-0.000661626
-0.000597463
8.69387e-06
0.000380506
0.000480438
0.000474987
0.000420815
0.000364231
0.000310689
0.000265204
0.00022687
0.000194609
0.000167406
0.000144432
0.000124625
0.000107524
9.25765e-05
7.95625e-05
6.81065e-05
5.79195e-05
4.92432e-05
4.14596e-05
3.49377e-05
2.9109e-05
2.42504e-05
2.00411e-05
1.64753e-05
1.34445e-05
1.0899e-05
8.73291e-06
7.00626e-06
5.44443e-06
4.32878e-06
3.28397e-06
2.64322e-06
2.02779e-06
1.7045e-06
1.37512e-06
1.20338e-06
9.82071e-07
8.84258e-07
6.77206e-07
5.99951e-07
3.78927e-07
3.29979e-07
1.61247e-07
1.82518e-07
9.11845e-08
1.64585e-07
1.16482e-07
1.93069e-07
1.36375e-07
1.85527e-07
1.04071e-07
1.42007e-07
4.46179e-08
8.75261e-08
-6.4616e-10
5.90824e-08
4.03433e-09
8.77462e-08
6.56203e-08
1.594e-07
1.48835e-07
2.54068e-07
2.38428e-07
3.20654e-07
2.7807e-07
3.35178e-07
2.78167e-07
3.17463e-07
2.568e-07
2.93377e-07
2.49081e-07
3.04349e-07
2.88899e-07
3.79967e-07
4.37873e-07
6.35447e-07
8.51653e-07
1.24388e-06
1.72608e-06
2.47549e-06
3.4496e-06
4.87625e-06
6.78019e-06
9.57722e-06
1.33421e-05
1.9502e-05
2.81533e-05
5.26543e-05
0.000107648
0.000345061
0.000899578
0.00268492
0.004281
0.0502202
0.0361536
0.015679
0.00240292
-0.000592132
-0.000555098
2.26097e-06
0.000341126
0.000434782
0.000430527
0.000381978
0.00033082
0.000282457
0.000241266
0.000206579
0.000177336
0.00015266
0.000131807
0.000113816
9.82736e-05
8.46769e-05
7.2836e-05
6.24127e-05
5.31117e-05
4.51969e-05
3.80807e-05
3.21258e-05
2.67863e-05
2.233e-05
1.84667e-05
1.51887e-05
1.23905e-05
1.00424e-05
8.03277e-06
6.44322e-06
4.98499e-06
3.95673e-06
2.98336e-06
2.39678e-06
1.82191e-06
1.52231e-06
1.21107e-06
1.05072e-06
8.36644e-07
7.49061e-07
5.53879e-07
4.92469e-07
2.87643e-07
2.51249e-07
9.03611e-08
1.18366e-07
2.75409e-08
1.00121e-07
4.81579e-08
1.22274e-07
6.22312e-08
1.09126e-07
2.34921e-08
6.1154e-08
-3.80636e-08
7.53782e-09
-7.63858e-08
-1.49114e-08
-6.67059e-08
1.8629e-08
-1.78284e-09
9.41329e-08
8.20594e-08
1.88395e-07
1.74347e-07
2.58051e-07
2.17501e-07
2.74417e-07
2.17588e-07
2.55603e-07
1.92469e-07
2.24913e-07
1.74728e-07
2.24196e-07
2.04157e-07
2.84633e-07
3.29233e-07
5.08242e-07
7.03216e-07
1.06842e-06
1.5133e-06
2.20874e-06
3.10483e-06
4.4183e-06
6.16954e-06
8.76479e-06
1.23018e-05
1.81907e-05
2.65983e-05
5.01436e-05
0.000101906
0.000322904
0.000834104
0.00248311
0.00394947
0.0415411
0.0309864
0.0136544
0.00212362
-0.00051515
-0.000497771
-2.52044e-06
0.000296575
0.000381159
0.000377987
0.000335761
0.000290928
0.000248608
0.000212472
0.000182084
0.000156409
0.000134731
0.0001164
0.000100572
8.68933e-05
7.49156e-05
6.44904e-05
5.53185e-05
4.71036e-05
4.01233e-05
3.3827e-05
2.85739e-05
2.38425e-05
1.98921e-05
1.64632e-05
1.35533e-05
1.10577e-05
8.96631e-06
7.16213e-06
5.75046e-06
4.43295e-06
3.52125e-06
2.64351e-06
2.12909e-06
1.6082e-06
1.34174e-06
1.05577e-06
9.13413e-07
7.11216e-07
6.37314e-07
4.55956e-07
4.12771e-07
2.26345e-07
2.04825e-07
5.7572e-08
9.27328e-08
2.86054e-09
7.19852e-08
1.60529e-08
8.42659e-08
2.25453e-08
6.5956e-08
-2.06147e-08
1.59053e-08
-8.23674e-08
-3.39616e-08
-1.13933e-07
-4.99224e-08
-9.81251e-08
-1.13319e-08
-3.0804e-08
6.52574e-08
5.28252e-08
1.56564e-07
1.43977e-07
2.2861e-07
1.9024e-07
2.47149e-07
1.91024e-07
2.27144e-07
1.62462e-07
1.89816e-07
1.34296e-07
1.76522e-07
1.50388e-07
2.20815e-07
2.51238e-07
4.10059e-07
5.79852e-07
9.11477e-07
1.30922e-06
1.93687e-06
2.73547e-06
3.90775e-06
5.46497e-06
7.79005e-06
1.09894e-05
1.63942e-05
2.42067e-05
4.58914e-05
9.27678e-05
0.000291097
0.000746258
0.00221574
0.00351665
0.0333566
0.0256079
0.0114309
0.00180004
-0.000431432
-0.000426986
-5.43859e-06
0.000247891
0.000320883
0.000318646
0.000283303
0.000245537
0.000209976
0.000179529
0.000153984
0.000132337
0.000114051
9.85796e-05
8.52118e-05
7.36563e-05
6.35261e-05
5.47239e-05
4.69896e-05
4.0032e-05
3.41356e-05
2.87911e-05
2.43567e-05
2.03366e-05
1.69822e-05
1.40637e-05
1.15912e-05
9.45917e-06
7.6771e-06
6.12207e-06
4.92433e-06
3.78059e-06
3.0111e-06
2.24949e-06
1.82219e-06
1.36723e-06
1.14294e-06
8.89131e-07
7.71019e-07
5.86426e-07
5.30175e-07
3.66184e-07
3.43411e-07
1.77501e-07
1.73439e-07
4.16519e-08
8.37178e-08
-3.32228e-09
6.07063e-08
-2.96883e-10
6.15046e-08
-2.93876e-09
3.80026e-08
-4.97003e-08
-1.30526e-08
-1.0851e-07
-5.74641e-08
-1.34236e-07
-6.61554e-08
-1.11679e-07
-2.35511e-08
-4.22121e-08
5.31667e-08
3.99266e-08
1.41531e-07
1.29365e-07
2.14859e-07
1.78316e-07
2.35722e-07
1.80064e-07
2.146e-07
1.48109e-07
1.70773e-07
1.09392e-07
1.43865e-07
1.10379e-07
1.70613e-07
1.86123e-07
3.22523e-07
4.62321e-07
7.53119e-07
1.09434e-06
1.64158e-06
2.32606e-06
3.33329e-06
4.66097e-06
6.65513e-06
9.41589e-06
1.41371e-05
2.10245e-05
4.00153e-05
8.05241e-05
0.000250674
0.000638725
0.00189179
0.00299712
0.0255599
0.0200693
0.00904926
0.00143942
-0.000341913
-0.000344624
-6.48006e-06
0.000196003
0.000255229
0.000253769
0.000225744
0.000195643
0.000167415
0.000143168
0.000122904
0.000105657
9.10836e-05
7.87503e-05
6.80851e-05
5.88679e-05
5.07738e-05
4.37654e-05
3.76205e-05
3.20612e-05
2.73726e-05
2.30899e-05
1.95717e-05
1.63491e-05
1.36667e-05
1.13217e-05
9.34345e-06
7.62581e-06
6.19777e-06
4.92991e-06
3.9772e-06
3.03574e-06
2.4302e-06
1.80162e-06
1.47349e-06
1.0944e-06
9.20155e-07
7.04431e-07
6.15787e-07
4.5396e-07
4.19048e-07
2.75745e-07
2.75424e-07
1.32497e-07
1.4789e-07
3.21593e-08
8.22425e-08
-1.20662e-09
5.81469e-08
-8.68363e-09
4.61396e-08
-2.21337e-08
1.64106e-08
-7.2255e-08
-3.44087e-08
-1.26272e-07
-7.26931e-08
-1.45225e-07
-7.32401e-08
-1.16029e-07
-2.76785e-08
-4.57108e-08
4.89666e-08
3.52519e-08
1.34799e-07
1.22114e-07
2.07976e-07
1.72929e-07
2.31113e-07
1.7597e-07
2.09221e-07
1.40982e-07
1.5935e-07
9.17382e-08
1.17716e-07
7.54475e-08
1.24568e-07
1.24232e-07
2.35874e-07
3.41799e-07
5.85756e-07
8.62633e-07
1.31867e-06
1.87501e-06
2.69726e-06
3.76561e-06
5.37694e-06
7.61114e-06
1.14721e-05
1.71414e-05
3.27097e-05
6.55828e-05
0.000202901
0.000514574
0.00152085
0.00240599
0.0180549
0.0144139
0.0065476
0.00104944
-0.000247699
-0.000252901
-5.83717e-06
0.00014174
0.000185438
0.000184608
0.000164224
0.000142244
0.000121791
0.000104136
8.94905e-05
7.69307e-05
6.63172e-05
5.73379e-05
4.95653e-05
4.28553e-05
3.69454e-05
3.18642e-05
2.74263e-05
2.33742e-05
1.99906e-05
1.68564e-05
1.43314e-05
1.19745e-05
1.00246e-05
8.30309e-06
6.86312e-06
5.59962e-06
4.5613e-06
3.61211e-06
2.92991e-06
2.21395e-06
1.78982e-06
1.30764e-06
1.08802e-06
7.92756e-07
6.75054e-07
5.02236e-07
4.47031e-07
3.12339e-07
3.01963e-07
1.82141e-07
2.05423e-07
8.73979e-08
1.2352e-07
2.46882e-08
8.35138e-08
4.11849e-09
6.0056e-08
-1.22759e-08
3.49084e-08
-3.84397e-08
-2.83909e-09
-9.21443e-08
-5.2365e-08
-1.39888e-07
-8.32813e-08
-1.50737e-07
-7.54759e-08
-1.15116e-07
-2.73673e-08
-4.55804e-08
4.83316e-08
3.44385e-08
1.31731e-07
1.17888e-07
2.03012e-07
1.6942e-07
2.28288e-07
1.74206e-07
2.06323e-07
1.36892e-07
1.51206e-07
7.74903e-08
9.38513e-08
4.14989e-08
7.79536e-08
6.1021e-08
1.46387e-07
2.15855e-07
4.08476e-07
6.14841e-07
9.70802e-07
1.38746e-06
2.00856e-06
2.79373e-06
3.98063e-06
5.61665e-06
8.47194e-06
1.26806e-05
2.42306e-05
4.84468e-05
0.000149228
0.000377181
0.00111295
0.00175881
0.0107529
0.00867881
0.00396169
0.000638206
-0.000150031
-0.000154295
-3.86451e-06
8.58459e-05
0.000112718
0.000112398
9.98783e-05
8.63411e-05
7.39735e-05
6.31921e-05
5.44021e-05
4.67318e-05
4.02548e-05
3.47845e-05
3.00408e-05
2.59598e-05
2.23418e-05
1.92838e-05
1.66358e-05
1.41675e-05
1.21582e-05
1.02347e-05
8.75839e-06
7.31653e-06
6.1436e-06
5.082e-06
4.21119e-06
3.42987e-06
2.80704e-06
2.2005e-06
1.8079e-06
1.3347e-06
1.10476e-06
7.78824e-07
6.74392e-07
4.68894e-07
4.1258e-07
2.86335e-07
2.67264e-07
1.63135e-07
1.79868e-07
8.58354e-08
1.33156e-07
4.08863e-08
9.81674e-08
1.70057e-08
8.48157e-08
1.01981e-08
6.37709e-08
-1.29061e-08
2.61335e-08
-5.30898e-08
-2.14326e-08
-1.10954e-07
-6.90741e-08
-1.51231e-07
-9.10945e-08
-1.52777e-07
-7.46253e-08
-1.10869e-07
-2.4368e-08
-4.35759e-08
4.89826e-08
3.49664e-08
1.2943e-07
1.14035e-07
1.97455e-07
1.65247e-07
2.24698e-07
1.72355e-07
2.03622e-07
1.33653e-07
1.44178e-07
6.46957e-08
7.06114e-08
7.00945e-09
2.92613e-08
-4.89271e-09
5.33475e-08
8.493e-08
2.23203e-07
3.54653e-07
6.0376e-07
8.71869e-07
1.2795e-06
1.76393e-06
2.49608e-06
3.48152e-06
5.22314e-06
7.79044e-06
1.48804e-05
2.96917e-05
9.12419e-05
0.00023016
0.000678435
0.0010714
0.00357066
0.00289751
0.00132582
0.000214085
-5.02511e-05
-5.14812e-05
-1.04123e-06
2.89998e-05
3.82511e-05
3.83617e-05
3.38373e-05
2.89343e-05
2.48373e-05
2.10968e-05
1.83042e-05
1.56448e-05
1.34104e-05
1.15426e-05
9.90971e-06
8.53233e-06
7.27263e-06
6.29591e-06
5.48639e-06
4.64611e-06
4.05207e-06
3.37663e-06
2.98175e-06
2.4847e-06
2.11631e-06
1.73739e-06
1.45362e-06
1.17063e-06
9.78497e-07
7.30166e-07
6.39272e-07
4.19607e-07
3.9166e-07
2.28154e-07
2.42958e-07
1.31054e-07
1.39169e-07
6.19722e-08
8.04329e-08
9.22713e-09
5.48375e-08
-1.15544e-08
5.97972e-08
-6.63987e-09
7.13677e-08
8.16259e-09
8.45557e-08
1.53499e-08
6.73164e-08
-1.20965e-08
1.89685e-08
-6.64178e-08
-3.9659e-08
-1.29171e-07
-8.54647e-08
-1.61414e-07
-9.73706e-08
-1.52575e-07
-7.16906e-08
-1.04363e-07
-1.96654e-08
-4.03932e-08
4.97044e-08
3.52441e-08
1.26269e-07
1.09134e-07
1.90093e-07
1.5924e-07
2.19166e-07
1.69291e-07
2.00072e-07
1.30243e-07
1.37263e-07
5.25563e-08
4.76318e-08
-2.7993e-08
-2.13349e-08
-7.32716e-08
-4.2559e-08
-4.93416e-08
3.29685e-08
8.69549e-08
2.24797e-07
3.38454e-07
5.2442e-07
6.9698e-07
9.56024e-07
1.25948e-06
1.82167e-06
2.63651e-06
4.99501e-06
9.94486e-06
3.06294e-05
7.72951e-05
0.000227875
0.000359793
-0.00357199
-0.00289897
-0.0013266
-0.000214349
5.02394e-05
5.27467e-05
2.07549e-06
-2.81593e-05
-3.67963e-05
-3.62851e-05
-3.27719e-05
-2.89769e-05
-2.47428e-05
-2.13849e-05
-1.81333e-05
-1.57407e-05
-1.36961e-05
-1.19293e-05
-1.04242e-05
-9.07137e-06
-7.94773e-06
-6.82303e-06
-5.7798e-06
-4.97953e-06
-4.14557e-06
-3.56135e-06
-2.86488e-06
-2.40757e-06
-1.96131e-06
-1.64895e-06
-1.34067e-06
-1.12102e-06
-8.78119e-07
-7.61763e-07
-5.46362e-07
-5.08425e-07
-3.31768e-07
-3.30476e-07
-1.95033e-07
-2.11705e-07
-1.3796e-07
-1.65077e-07
-1.08693e-07
-1.45791e-07
-7.05318e-08
-1.08048e-07
-1.28922e-08
-5.39115e-08
4.36452e-08
-1.957e-09
8.22167e-08
1.86443e-08
6.93205e-08
-1.11821e-08
1.27646e-08
-7.84283e-08
-5.72572e-08
-1.46638e-07
-1.01663e-07
-1.70956e-07
-1.02886e-07
-1.50923e-07
-6.74118e-08
-9.63862e-08
-1.38084e-08
-3.63477e-08
4.99755e-08
3.4431e-08
1.21349e-07
1.02447e-07
1.80438e-07
1.50986e-07
2.11274e-07
1.64544e-07
1.95177e-07
1.26086e-07
1.29859e-07
4.06402e-08
2.5033e-08
-6.28279e-08
-7.27781e-08
-1.42926e-07
-1.39836e-07
-1.84728e-07
-1.5873e-07
-1.82909e-07
-1.58175e-07
-2.01581e-07
-2.41087e-07
-3.84876e-07
-6.05008e-07
-9.93074e-07
-1.63126e-06
-2.60566e-06
-5.07037e-06
-1.01355e-05
-3.08646e-05
-7.75291e-05
-0.000228047
-0.000359899
-0.0107542
-0.00868026
-0.00396247
-0.000638467
0.000150021
0.000155556
4.9008e-06
-8.50079e-05
-0.000111266
-0.000110332
-9.88233e-05
-8.63931e-05
-7.38909e-05
-6.3487e-05
-5.42393e-05
-4.68336e-05
-4.0543e-05
-3.51705e-05
-3.05548e-05
-2.64936e-05
-2.30037e-05
-1.97956e-05
-1.69192e-05
-1.4497e-05
-1.22504e-05
-1.04203e-05
-8.64569e-06
-7.245e-06
-5.99187e-06
-4.99429e-06
-4.1016e-06
-3.38656e-06
-2.71514e-06
-2.2371e-06
-1.7186e-06
-1.42576e-06
-1.04713e-06
-8.82613e-07
-6.27907e-07
-5.49928e-07
-4.11171e-07
-3.88491e-07
-2.9486e-07
-2.97901e-07
-1.93353e-07
-2.01544e-07
-8.30256e-08
-9.93667e-08
1.60424e-08
-1.28444e-08
7.80581e-08
1.98724e-08
6.90403e-08
-1.12642e-08
6.78984e-09
-8.9145e-08
-7.38108e-08
-1.62891e-07
-1.17274e-07
-1.79858e-07
-1.07905e-07
-1.48333e-07
-6.23941e-08
-8.7603e-08
-7.26044e-09
-3.16807e-08
4.96159e-08
3.21655e-08
1.14291e-07
9.37286e-08
1.68515e-07
1.40594e-07
2.01111e-07
1.58033e-07
1.88708e-07
1.20768e-07
1.21464e-07
2.85625e-08
2.99548e-09
-9.65793e-08
-1.23562e-07
-2.12102e-07
-2.36476e-07
-3.18675e-07
-3.4825e-07
-4.49547e-07
-5.37115e-07
-7.36661e-07
-1.00069e-06
-1.45841e-06
-2.15144e-06
-3.21865e-06
-5.0328e-06
-7.75741e-06
-1.4954e-05
-2.98808e-05
-9.14757e-05
-0.000230394
-0.000678608
-0.00107151
-0.0180562
-0.0144153
-0.00654836
-0.0010497
0.000247693
0.000254154
6.87494e-06
-0.00014091
-0.000183994
-0.000182567
-0.00016319
-0.000142314
-0.000121731
-0.000104444
-8.93434e-05
-7.70443e-05
-6.66104e-05
-5.7722e-05
-5.00775e-05
-4.33778e-05
-3.75817e-05
-3.23467e-05
-2.76906e-05
-2.36955e-05
-2.00788e-05
-1.7042e-05
-1.42252e-05
-1.19127e-05
-9.87854e-06
-8.21681e-06
-6.75986e-06
-5.56783e-06
-4.48486e-06
-3.65768e-06
-2.84707e-06
-2.30859e-06
-1.73581e-06
-1.41364e-06
-1.04401e-06
-8.74222e-07
-6.72827e-07
-6.01827e-07
-4.72785e-07
-4.43018e-07
-3.107e-07
-2.90068e-07
-1.48967e-07
-1.41569e-07
-1.02464e-08
-2.37368e-08
7.2704e-08
1.93034e-08
6.61662e-08
-1.3244e-08
1.32939e-10
-9.90949e-08
-8.90233e-08
-1.77448e-07
-1.31603e-07
-1.87819e-07
-1.12432e-07
-1.45156e-07
-5.72947e-08
-7.87326e-08
-6.95594e-10
-2.68559e-08
4.84418e-08
2.8222e-08
1.0496e-07
8.29315e-08
1.54579e-07
1.28409e-07
1.8899e-07
1.49805e-07
1.80488e-07
1.13842e-07
1.11495e-07
1.5834e-08
-1.84687e-08
-1.28515e-07
-1.72195e-07
-2.78923e-07
-3.30325e-07
-4.486e-07
-5.32082e-07
-7.07863e-07
-9.04338e-07
-1.25543e-06
-1.73798e-06
-2.50004e-06
-3.64751e-06
-5.36027e-06
-8.28198e-06
-1.26438e-05
-2.43009e-05
-4.8633e-05
-0.000149459
-0.000377414
-0.00111312
-0.00175891
-0.0255611
-0.0200707
-0.00905
-0.00143966
0.000341918
0.000345866
7.51501e-06
-0.000195193
-0.000253805
-0.000251772
-0.000224743
-0.000195737
-0.000167385
-0.000143493
-0.000122779
-0.000105788
-9.13841e-05
-7.91301e-05
-6.85923e-05
-5.93725e-05
-5.13735e-05
-4.4207e-05
-3.78582e-05
-3.23692e-05
-2.7452e-05
-2.32723e-05
-1.94716e-05
-1.62989e-05
-1.35274e-05
-1.12377e-05
-9.24893e-06
-7.60898e-06
-6.14135e-06
-4.9867e-06
-3.90256e-06
-3.13391e-06
-2.37971e-06
-1.90954e-06
-1.43238e-06
-1.17596e-06
-9.15971e-07
-7.99535e-07
-6.37828e-07
-5.77584e-07
-4.20071e-07
-3.72223e-07
-2.09807e-07
-1.79851e-07
-3.44627e-08
-3.41115e-08
6.64018e-08
1.70214e-08
6.03335e-08
-1.78888e-08
-8.42148e-09
-1.09232e-07
-1.02948e-07
-1.90359e-07
-1.44443e-07
-1.94764e-07
-1.1661e-07
-1.41977e-07
-5.3141e-08
-7.10037e-08
4.53428e-09
-2.29334e-08
4.56975e-08
2.21085e-08
9.28816e-08
6.96978e-08
1.38541e-07
1.14392e-07
1.7485e-07
1.39493e-07
1.69923e-07
1.04437e-07
9.89218e-08
1.68428e-09
-3.99748e-08
-1.58629e-07
-2.17869e-07
-3.4204e-07
-4.19637e-07
-5.72323e-07
-7.0721e-07
-9.53443e-07
-1.25303e-06
-1.74745e-06
-2.43731e-06
-3.48683e-06
-5.05839e-06
-7.36329e-06
-1.12833e-05
-1.71004e-05
-3.27761e-05
-6.5765e-05
-0.000203128
-0.000514805
-0.00152102
-0.0024061
-0.0333578
-0.0256092
-0.0114316
-0.00180025
0.000431454
0.00042821
6.46258e-06
-0.000247115
-0.000319495
-0.000316713
-0.000282345
-0.000245659
-0.000209981
-0.000179874
-0.000153886
-0.000132488
-0.000114359
-9.89512e-05
-8.57089e-05