/*--------------------------------*- C++ -*----------------------------------*\
| =========                 |                                                 |
| \\      /  F ield         | OpenFOAM: The Open Source CFD Toolbox           |
|  \\    /   O peration     | Version:  v1906                                 |
|   \\  /    A nd           | Web:      www.OpenFOAM.com                      |
|    \\/     M anipulation  |                                                 |
\*---------------------------------------------------------------------------*/
FoamFile
{
    version     2.0;
    format      ascii;
    class       volScalarField;
    location    "1.5";
    object      Uy;
}
// * * * * * * * * * * * * * * * * * * * * * * * * * * * * * * * * * * * * * //

dimensions      [0 1 -1 0 0 0 0];


internalField   nonuniform List<scalar> 
4000
(
0.0295871
-0.00143128
-0.0021733
-0.00196803
-0.00213433
-0.00203716
-0.00210846
-0.00206983
-0.00209919
-0.00208421
-0.00209624
-0.00209068
-0.00209557
-0.00209352
-0.00209554
-0.00209479
-0.00209562
-0.00209535
-0.00209568
-0.00209557
-0.00209571
-0.00209568
-0.00209572
-0.00209571
-0.00209573
-0.00209573
-0.00209573
-0.00209573
-0.00209573
-0.00209573
-0.00209573
-0.00209573
-0.00209573
-0.00209573
-0.00209573
-0.00209573
-0.00209573
-0.00209573
-0.00209573
-0.00209573
-0.00209573
-0.00209573
-0.00209573
-0.00209573
-0.00209573
-0.00209573
-0.00209573
-0.00209574
-0.00209573
-0.00209573
-0.00209573
-0.00209573
-0.00209573
-0.00209573
-0.00209573
-0.00209573
-0.00209573
-0.00209573
-0.00209573
-0.00209573
-0.00209573
-0.00209573
-0.00209573
-0.00209573
-0.00209573
-0.00209573
-0.00209573
-0.00209573
-0.00209573
-0.00209573
-0.00209573
-0.00209573
-0.00209573
-0.00209574
-0.00209573
-0.00209573
-0.00209573
-0.00209573
-0.00209573
-0.00209573
-0.00209573
-0.00209573
-0.00209573
-0.00209573
-0.00209573
-0.00209573
-0.00209573
-0.00209573
-0.00209573
-0.00209573
-0.00209572
-0.00209571
-0.00209567
-0.00209564
-0.00209551
-0.0020955
-0.00209521
-0.00209629
-0.00208524
-0.00211064
0.0707539
0.00206257
-0.000815555
0.000295528
-0.000546622
-4.18932e-05
-0.000398913
-0.000200117
-0.00034662
-0.000269423
-0.00032947
-0.00030118
-0.000325256
-0.00031482
-0.000324745
-0.000320908
-0.000324978
-0.000323573
-0.000325223
-0.00032469
-0.000325356
-0.000325163
-0.000325409
-0.000325332
-0.000325439
-0.000325415
-0.000325447
-0.000325437
-0.000325456
-0.000325449
-0.000325453
-0.000325461
-0.000325448
-0.000325452
-0.000325453
-0.000325457
-0.000325449
-0.00032546
-0.000325454
-0.000325454
-0.00032545
-0.000325452
-0.000325448
-0.00032546
-0.000325451
-0.000325459
-0.00032546
-0.000325465
-0.000325458
-0.000325462
-0.000325455
-0.00032546
-0.000325451
-0.000325459
-0.00032545
-0.00032546
-0.00032545
-0.000325454
-0.000325451
-0.000325455
-0.000325451
-0.000325457
-0.000325452
-0.000325459
-0.000325453
-0.000325459
-0.000325451
-0.000325456
-0.000325453
-0.000325458
-0.000325454
-0.000325459
-0.000325456
-0.000325461
-0.000325454
-0.000325462
-0.000325453
-0.000325458
-0.000325455
-0.000325457
-0.000325458
-0.000325458
-0.000325458
-0.000325459
-0.000325454
-0.000325457
-0.000325451
-0.000325453
-0.00032544
-0.000325436
-0.0003254
-0.00032537
-0.000325248
-0.000325136
-0.000324697
-0.000324639
-0.000323109
-0.0003265
-0.000280615
-0.000284516
0.0785245
0.0039745
-0.000256033
0.00150129
8.93154e-05
0.000932363
0.00032233
0.000651595
0.000406585
0.000532719
0.000432207
0.000478248
0.000437298
0.000454
0.000436996
0.000443034
0.000435966
0.000438128
0.000435236
0.000436034
0.000434865
0.000435147
0.000434706
0.000434822
0.000434638
0.00043467
0.000434607
0.000434617
0.000434589
0.000434591
0.000434588
0.000434577
0.000434595
0.000434592
0.000434596
0.000434581
0.000434596
0.000434579
0.000434587
0.000434587
0.000434598
0.000434589
0.000434599
0.00043458
0.000434588
0.000434578
0.000434577
0.000434567
0.00043458
0.000434574
0.000434585
0.000434577
0.000434592
0.000434579
0.000434592
0.000434579
0.000434594
0.000434588
0.000434594
0.000434585
0.000434592
0.000434581
0.00043459
0.000434576
0.000434587
0.000434578
0.000434591
0.000434584
0.00043459
0.00043458
0.000434588
0.000434579
0.000434583
0.000434574
0.000434585
0.000434575
0.000434586
0.00043458
0.000434585
0.00043458
0.000434582
0.000434578
0.000434582
0.000434577
0.000434585
0.000434582
0.000434592
0.000434591
0.000434614
0.000434625
0.000434691
0.000434753
0.000434982
0.000435206
0.000436061
0.000436181
0.000439842
0.000433882
0.000531233
0.000668108
0.0745006
0.0042313
-0.000481377
0.00156247
-0.000164718
0.000867245
0.000101116
0.000510837
0.00020066
0.000353643
0.000227807
0.000283543
0.000231214
0.000251076
0.000229096
0.000236035
0.000226859
0.000229259
0.00022547
0.00022632
0.000224788
0.000225072
0.000224485
0.000224607
0.000224364
0.000224389
0.0002243
0.000224305
0.000224272
0.000224268
0.000224266
0.000224252
0.000224273
0.000224273
0.000224282
0.000224257
0.000224277
0.000224256
0.000224266
0.000224266
0.000224283
0.000224266
0.000224284
0.000224257
0.000224261
0.00022425
0.00022425
0.000224235
0.000224253
0.000224246
0.000224261
0.00022425
0.00022427
0.000224252
0.000224271
0.000224255
0.000224273
0.000224265
0.000224276
0.000224262
0.000224272
0.000224254
0.000224268
0.000224247
0.000224263
0.000224252
0.00022427
0.00022426
0.00022427
0.000224255
0.000224265
0.000224253
0.000224259
0.000224247
0.00022426
0.000224248
0.000224262
0.000224255
0.000224262
0.000224253
0.000224258
0.00022425
0.000224256
0.000224249
0.00022426
0.000224258
0.00022427
0.000224271
0.000224304
0.000224323
0.000224417
0.000224514
0.000224847
0.00022518
0.000226456
0.000226622
0.000232933
0.000224674
0.000385572
0.000699629
0.0692166
0.00421319
-0.000655666
0.00152832
-0.00036919
0.000770829
-8.25685e-05
0.00037549
2.15667e-05
0.00019353
4.79743e-05
0.000110881
4.90608e-05
7.13915e-05
4.49717e-05
5.22528e-05
4.1483e-05
4.39077e-05
3.94248e-05
4.024e-05
3.84129e-05
3.86698e-05
3.79633e-05
3.80741e-05
3.77816e-05
3.7795e-05
3.76863e-05
3.76813e-05
3.76436e-05
3.76323e-05
3.76334e-05
3.76168e-05
3.76418e-05
3.76435e-05
3.76587e-05
3.7623e-05
3.76479e-05
3.76235e-05
3.76351e-05
3.76345e-05
3.7657e-05
3.76322e-05
3.76569e-05
3.76235e-05
3.76246e-05
3.76123e-05
3.76126e-05
3.75939e-05
3.76174e-05
3.76089e-05
3.76276e-05
3.76121e-05
3.7638e-05
3.76149e-05
3.76379e-05
3.76205e-05
3.76425e-05
3.76329e-05
3.76477e-05
3.76297e-05
3.76418e-05
3.76187e-05
3.76353e-05
3.7609e-05
3.76287e-05
3.76152e-05
3.76384e-05
3.76267e-05
3.76394e-05
3.76204e-05
3.76329e-05
3.76177e-05
3.7625e-05
3.7609e-05
3.76255e-05
3.76116e-05
3.76273e-05
3.76199e-05
3.76292e-05
3.76165e-05
3.76237e-05
3.76114e-05
3.76198e-05
3.76102e-05
3.7624e-05
3.7622e-05
3.76373e-05
3.76406e-05
3.76816e-05
3.77086e-05
3.78267e-05
3.79531e-05
3.83759e-05
3.88043e-05
4.04692e-05
4.06504e-05
4.98121e-05
3.95049e-05
0.000263173
0.000725793
0.0642269
0.00424766
-0.000678551
0.00159521
-0.000420603
0.000795162
-0.000115516
0.00036885
-8.33598e-06
0.000175342
1.70362e-05
8.38359e-05
1.59544e-05
3.92912e-05
1.00798e-05
1.74851e-05
5.4427e-06
7.81674e-06
2.73055e-06
3.4885e-06
1.34896e-06
1.57453e-06
7.54114e-07
8.46371e-07
5.11045e-07
5.11658e-07
3.86403e-07
3.70977e-07
3.29149e-07
3.10254e-07
3.13297e-07
2.95458e-07
3.24214e-07
3.26983e-07
3.49459e-07
3.04179e-07
3.32802e-07
3.0604e-07
3.1853e-07
3.17027e-07
3.45556e-07
3.12298e-07
3.42737e-07
3.04873e-07
3.02432e-07
2.89157e-07
2.90532e-07
2.67956e-07
2.96276e-07
2.8617e-07
3.07711e-07
2.88798e-07
3.19777e-07
2.91721e-07
3.18888e-07
3.00065e-07
3.25625e-07
3.14226e-07
3.33259e-07
3.11686e-07
3.25882e-07
2.97373e-07
3.17046e-07
2.85022e-07
3.08829e-07
2.93141e-07
3.20912e-07
3.07381e-07
3.23077e-07
3.00139e-07
3.14179e-07
2.96188e-07
3.05252e-07
2.85742e-07
3.04629e-07
2.8915e-07
3.07133e-07
2.99021e-07
3.10601e-07
2.94488e-07
3.03612e-07
2.87475e-07
2.97903e-07
2.8591e-07
3.01803e-07
3.0052e-07
3.18131e-07
3.23482e-07
3.71648e-07
4.04999e-07
5.43007e-07
6.93789e-07
1.191e-06
1.71756e-06
3.78575e-06
3.96194e-06
1.60087e-05
3.726e-06
0.000277977
0.000851879
0.059303
0.00424745
-0.000652756
0.00166715
-0.000418929
0.000843811
-0.000109794
0.000393733
-1.7024e-08
0.00018935
2.4166e-05
9.16463e-05
2.11636e-05
4.40614e-05
1.37557e-05
2.11152e-05
8.11375e-06
1.03814e-05
4.78604e-06
5.47164e-06
3.04785e-06
3.22439e-06
2.32767e-06
2.39758e-06
2.02833e-06
2.01489e-06
1.87632e-06
1.85e-06
1.80489e-06
1.779e-06
1.78388e-06
1.76522e-06
1.79777e-06
1.80104e-06
1.83123e-06
1.77741e-06
1.80881e-06
1.78081e-06
1.79401e-06
1.79093e-06
1.82528e-06
1.78402e-06
1.81889e-06
1.77784e-06
1.77197e-06
1.75756e-06
1.76032e-06
1.73404e-06
1.76665e-06
1.7551e-06
1.77898e-06
1.75688e-06
1.79269e-06
1.76001e-06
1.79111e-06
1.7711e-06
1.79998e-06
1.78675e-06
1.80986e-06
1.78526e-06
1.80114e-06
1.76759e-06
1.78999e-06
1.75271e-06
1.78022e-06
1.7627e-06
1.79461e-06
1.7795e-06
1.79787e-06
1.77125e-06
1.78645e-06
1.76586e-06
1.77661e-06
1.75393e-06
1.77486e-06
1.7581e-06
1.77846e-06
1.76956e-06
1.78355e-06
1.76408e-06
1.77468e-06
1.75514e-06
1.76716e-06
1.75306e-06
1.77053e-06
1.77005e-06
1.78981e-06
1.79687e-06
1.85109e-06
1.88945e-06
2.04316e-06
2.21244e-06
2.76782e-06
3.35162e-06
5.82017e-06
5.97769e-06
2.07732e-05
6.67292e-06
0.000322747
0.000984961
0.0544141
0.00416731
-0.000623442
0.0016967
-0.000407977
0.000871667
-0.000102923
0.000409596
6.2987e-06
0.000198197
2.88456e-05
9.66164e-05
2.41845e-05
4.67988e-05
1.55184e-05
2.26462e-05
9.0761e-06
1.11696e-05
5.2973e-06
5.8732e-06
3.31834e-06
3.43548e-06
2.48086e-06
2.5264e-06
2.12914e-06
2.10053e-06
1.95214e-06
1.91536e-06
1.86809e-06
1.83578e-06
1.84236e-06
1.82326e-06
1.85985e-06
1.86296e-06
1.90106e-06
1.83995e-06
1.87316e-06
1.845e-06
1.85902e-06
1.85344e-06
1.89323e-06
1.84459e-06
1.88263e-06
1.8396e-06
1.83056e-06
1.81483e-06
1.81934e-06
1.7894e-06
1.82567e-06
1.8129e-06
1.83875e-06
1.81369e-06
1.85404e-06
1.8172e-06
1.85209e-06
1.83096e-06
1.86286e-06
1.84782e-06
1.8747e-06
1.84749e-06
1.86477e-06
1.82646e-06
1.85142e-06
1.80932e-06
1.84019e-06
1.82121e-06
1.85689e-06
1.84041e-06
1.86109e-06
1.8311e-06
1.84718e-06
1.82419e-06
1.83644e-06
1.81085e-06
1.83356e-06
1.81575e-06
1.83864e-06
1.82889e-06
1.84534e-06
1.82269e-06
1.83434e-06
1.81183e-06
1.82502e-06
1.80908e-06
1.82768e-06
1.82795e-06
1.84959e-06
1.85801e-06
1.91703e-06
1.959e-06
2.12422e-06
2.30843e-06
2.90907e-06
3.53151e-06
6.24708e-06
6.36989e-06
2.34973e-05
7.94628e-06
0.000357168
0.00108305
0.0496226
0.00401672
-0.000593842
0.00168422
-0.000392523
0.000876439
-9.62064e-05
0.00041404
1.04491e-05
0.000201016
3.10188e-05
9.80342e-05
2.50054e-05
4.70883e-05
1.53927e-05
2.21454e-05
8.38084e-06
1.02538e-05
4.33045e-06
4.77671e-06
2.24218e-06
2.30604e-06
1.31555e-06
1.33678e-06
9.07282e-07
8.61573e-07
7.05928e-07
6.59553e-07
6.11242e-07
5.72896e-07
5.81036e-07
5.61905e-07
6.0279e-07
6.05077e-07
6.51206e-07
5.84023e-07
6.18189e-07
5.90702e-07
6.0581e-07
5.96766e-07
6.41812e-07
5.86354e-07
6.26444e-07
5.82308e-07
5.70649e-07
5.53236e-07
5.59923e-07
5.26327e-07
5.65641e-07
5.51719e-07
5.79433e-07
5.51498e-07
5.96224e-07
5.55709e-07
5.94199e-07
5.72008e-07
6.06603e-07
5.89832e-07
6.2003e-07
5.90564e-07
6.08981e-07
5.66184e-07
5.93646e-07
5.47255e-07
5.81018e-07
5.60937e-07
6.00072e-07
5.82413e-07
6.05051e-07
5.7198e-07
5.88785e-07
5.63532e-07
5.77077e-07
5.48995e-07
5.73057e-07
5.54539e-07
5.80024e-07
5.69336e-07
5.88194e-07
5.62619e-07
5.74905e-07
5.49852e-07
5.63837e-07
5.46268e-07
5.65644e-07
5.66539e-07
5.89733e-07
5.99151e-07
6.62114e-07
7.06451e-07
8.79179e-07
1.08192e-06
1.72426e-06
2.36519e-06
5.15242e-06
5.23046e-06
2.41423e-05
7.5559e-06
0.000378848
0.00114312
0.0449479
0.00381103
-0.000561129
0.00163735
-0.000371769
0.000862223
-8.82109e-05
0.000409582
1.42013e-05
0.000199855
3.28587e-05
9.78392e-05
2.58256e-05
4.69789e-05
1.55816e-05
2.18728e-05
8.19804e-06
9.84318e-06
3.96242e-06
4.29258e-06
1.81787e-06
1.82979e-06
8.57023e-07
8.56291e-07
4.18909e-07
3.58476e-07
2.00633e-07
1.45674e-07
9.65077e-08
5.16329e-08
6.16118e-08
4.41394e-08
8.81135e-08
8.88634e-08
1.43833e-07
7.10794e-08
1.05484e-07
7.92267e-08
9.58766e-08
8.22584e-08
1.33456e-07
7.07599e-08
1.12617e-07
6.7337e-08
5.35537e-08
3.42573e-08
4.3263e-08
6.98094e-09
4.77807e-08
3.29962e-08
6.2349e-08
3.18167e-08
8.08776e-08
3.69796e-08
7.89622e-08
5.5718e-08
9.27178e-08
7.42758e-08
1.07334e-07
7.58374e-08
9.52354e-08
4.85151e-08
7.81085e-08
2.90617e-08
6.41678e-08
4.33852e-08
8.5668e-08
6.68659e-08
9.14342e-08
5.52973e-08
7.2824e-08
4.54565e-08
6.00522e-08
3.03848e-08
5.49503e-08
3.60419e-08
6.40568e-08
5.23512e-08
7.35609e-08
4.52698e-08
5.79242e-08
3.06394e-08
4.51387e-08
2.60916e-08
4.59496e-08
4.72771e-08
7.17625e-08
8.1805e-08
1.49289e-07
1.9513e-07
3.71676e-07
5.7804e-07
1.23315e-06
1.84635e-06
4.66284e-06
4.69786e-06
2.48826e-05
7.63457e-06
0.000389651
0.00116858
0.0403796
0.00356013
-0.000524475
0.00156102
-0.000346447
0.000831118
-7.9383e-05
0.00039701
1.73606e-05
0.000194838
3.41271e-05
9.59454e-05
2.64193e-05
4.63088e-05
1.58677e-05
2.16367e-05
8.31602e-06
9.73715e-06
3.98266e-06
4.21217e-06
1.78738e-06
1.75495e-06
8.11471e-07
7.9201e-07
3.73303e-07
3.01313e-07
1.46994e-07
8.55562e-08
3.78949e-08
-1.21202e-08
7.00491e-11
-1.70519e-08
3.21633e-08
3.03605e-08
9.31869e-08
1.72809e-08
5.159e-08
2.65424e-08
4.55603e-08
2.58452e-08
8.18675e-08
1.38357e-08
5.58742e-08
1.07819e-08
-4.33344e-09
-2.61337e-08
-1.43465e-08
-5.36023e-08
-1.19578e-08
-2.68641e-08
3.52468e-09
-2.894e-08
2.41494e-08
-2.29734e-08
2.28152e-08
-1.76575e-09
3.76332e-08
1.71323e-08
5.30499e-08
1.92246e-08
3.95708e-08
-1.05481e-08
2.07725e-08
-3.1008e-08
5.93844e-09
-1.49859e-08
3.00655e-08
9.65535e-09
3.63133e-08
-3.03614e-09
1.55843e-08
-1.35688e-08
1.71057e-09
-2.97313e-08
-4.2502e-09
-2.34245e-08
6.65961e-09
-6.12828e-09
1.78399e-08
-1.34408e-08
-2.16409e-10
-2.97383e-08
-1.50732e-08
-3.51143e-08
-1.53845e-08
-1.3823e-08
1.2059e-08
2.23562e-08
9.14031e-08
1.37073e-07
3.1265e-07
5.06602e-07
1.14463e-06
1.73637e-06
4.57315e-06
4.57028e-06
2.54653e-05
7.97215e-06
0.000389875
0.00116171
0.0359031
0.00327123
-0.000483821
0.00145899
-0.000317599
0.000784572
-7.03325e-05
0.000376714
1.94957e-05
0.00018587
3.43576e-05
9.20559e-05
2.6323e-05
4.46851e-05
1.57942e-05
2.09948e-05
8.29532e-06
9.49868e-06
3.98572e-06
4.12727e-06
1.79139e-06
1.72298e-06
8.17675e-07
7.83345e-07
3.80893e-07
2.97546e-07
1.50011e-07
8.43779e-08
4.06109e-08
-1.21766e-08
2.28015e-09
-1.61456e-08
4.06938e-08
3.59059e-08
1.04684e-07
2.86317e-08
6.23089e-08
3.85772e-08
6.05266e-08
3.37108e-08
9.23736e-08
2.13985e-08
6.18381e-08
1.85466e-08
2.68742e-09
-2.17702e-08
-7.19259e-09
-4.97799e-08
-7.40302e-09
-2.22132e-08
9.16661e-09
-2.49245e-08
3.15919e-08
-1.79536e-08
3.13282e-08
5.39371e-09
4.70321e-08
2.45625e-08
6.2812e-08
2.68874e-08
4.80969e-08
-5.35812e-09
2.78553e-08
-2.74188e-08
1.22047e-08
-8.55179e-09
3.89526e-08
1.68974e-08
4.52603e-08
3.15426e-09
2.29417e-08
-7.84182e-09
7.85536e-09
-2.5864e-08
1.1563e-09
-1.83252e-08
1.3968e-08
3.62607e-11
2.66267e-08
-7.37587e-09
6.20477e-09
-2.53088e-08
-1.06028e-08
-3.14907e-08
-1.20874e-08
-1.04996e-08
1.63801e-08
2.65319e-08
9.38579e-08
1.37629e-07
3.07703e-07
4.92539e-07
1.11008e-06
1.67689e-06
4.47331e-06
4.43811e-06
2.54062e-05
8.13503e-06
0.000379693
0.00112462
0.0315055
0.00295065
-0.000439113
0.00133483
-0.000285937
0.000724204
-6.13265e-05
0.000349338
2.04843e-05
0.000173176
3.34475e-05
8.61983e-05
2.54259e-05
4.20454e-05
1.5244e-05
1.98454e-05
8.01871e-06
9.01583e-06
3.86134e-06
3.92952e-06
1.73727e-06
1.64196e-06
7.9387e-07
7.49177e-07
3.68397e-07
2.75842e-07
1.38832e-07
7.04591e-08
3.07058e-08
-2.36084e-08
-7.28254e-09
-2.59429e-08
3.78496e-08
3.04232e-08
1.04136e-07
2.9476e-08
6.17436e-08
3.9647e-08
6.45456e-08
3.06458e-08
9.12225e-08
1.82954e-08
5.63247e-08
1.50627e-08
-1.33683e-09
-2.78677e-08
-1.12757e-08
-5.62374e-08
-1.37258e-08
-2.91172e-08
4.2288e-09
-3.19547e-08
2.73913e-08
-2.32871e-08
2.82937e-08
1.82102e-09
4.48472e-08
2.13007e-08
6.05168e-08
2.37279e-08
4.56943e-08
-1.15678e-08
2.4305e-08
-3.41731e-08
7.22867e-09
-1.34783e-08
3.631e-08
1.34008e-08
4.2423e-08
-1.37223e-09
1.92201e-08
-1.33873e-08
2.65327e-09
-3.29786e-08
-4.88182e-09
-2.46683e-08
1.07535e-08
-4.30587e-09
2.37133e-08
-1.17756e-08
1.28305e-09
-3.13194e-08
-1.66659e-08
-3.88231e-08
-1.92374e-08
-1.77772e-08
9.03258e-09
1.85747e-08
8.41919e-08
1.25256e-07
2.8671e-07
4.60425e-07
1.04738e-06
1.57696e-06
4.25571e-06
4.19525e-06
2.45797e-05
8.0057e-06
0.000359709
0.00105983
0.0271755
0.00260398
-0.000390366
0.00119193
-0.000251956
0.000651739
-5.24675e-05
0.000315666
2.03628e-05
0.000157125
3.14554e-05
7.85454e-05
2.3769e-05
3.84694e-05
1.42405e-05
1.82259e-05
7.49878e-06
8.30593e-06
3.61521e-06
3.62669e-06
1.62742e-06
1.51505e-06
7.44464e-07
6.94369e-07
3.45038e-07
2.46083e-07
1.2348e-07
5.3936e-08
1.88927e-08
-3.61106e-08
-1.7509e-08
-3.64988e-08
3.4648e-08
2.48438e-08
1.02146e-07
3.04012e-08
6.11199e-08
4.01758e-08
6.83734e-08
2.74435e-08
8.8674e-08
1.52158e-08
5.01478e-08
1.09751e-08
-5.17082e-09
-3.35934e-08
-1.54742e-08
-6.23775e-08
-1.98431e-08
-3.64367e-08
-7.0455e-10
-3.89664e-08
2.27633e-08
-2.85739e-08
2.48512e-08
-1.71464e-09
4.21812e-08
1.81087e-08
5.73321e-08
2.01596e-08
4.29262e-08
-1.81018e-08
2.06095e-08
-4.08921e-08
1.99409e-09
-1.86098e-08
3.31948e-08
9.74101e-09
3.88633e-08
-5.83101e-09
1.52769e-08
-1.90742e-08
-2.90944e-09
-4.01316e-08
-1.11783e-08
-3.11439e-08
7.58504e-09
-8.68631e-09
2.02097e-08
-1.59352e-08
-3.93305e-09
-3.7121e-08
-2.2459e-08
-4.60811e-08
-2.62251e-08
-2.50413e-08
1.17867e-09
9.73432e-09
7.27295e-08
1.10153e-07
2.5986e-07
4.17855e-07
9.60792e-07
1.44135e-06
3.92984e-06
3.85267e-06
2.30153e-05
7.59538e-06
0.000330784
0.000970177
0.0229024
0.00223606
-0.000337758
0.00103343
-0.000216074
0.000568878
-4.38129e-05
0.000276511
1.92099e-05
0.000138117
2.84718e-05
6.92957e-05
2.14163e-05
3.40554e-05
1.28233e-05
1.61856e-05
6.75841e-06
7.39431e-06
3.26023e-06
3.23233e-06
1.46873e-06
1.34923e-06
6.74001e-07
6.2342e-07
3.14531e-07
2.12197e-07
1.07711e-07
3.84861e-08
8.75424e-09
-4.65161e-08
-2.44133e-08
-4.38369e-08
3.46467e-08
2.24774e-08
1.02568e-07
3.48585e-08
6.42617e-08
4.35262e-08
7.55997e-08
2.73442e-08
8.84236e-08
1.50209e-08
4.7161e-08
9.75016e-09
-5.22571e-09
-3.57239e-08
-1.62832e-08
-6.44252e-08
-2.26509e-08
-4.035e-08
-2.61347e-09
-4.23588e-08
2.14679e-08
-3.05125e-08
2.48242e-08
-2.12724e-09
4.28074e-08
1.8175e-08
5.71148e-08
1.93341e-08
4.29925e-08
-2.09651e-08
1.99083e-08
-4.36805e-08
1.58272e-10
-2.01054e-08
3.33195e-08
9.03799e-09
3.84925e-08
-7.03114e-09
1.45868e-08
-2.10781e-08
-5.17088e-09
-4.35229e-08
-1.384e-08
-3.39102e-08
7.56088e-09
-9.95983e-09
1.99157e-08
-1.6747e-08
-5.73031e-09
-3.95684e-08
-2.47884e-08
-4.96659e-08
-2.98776e-08
-2.90972e-08
-3.55153e-09
3.73986e-09
6.32145e-08
9.60375e-08
2.31077e-07
3.69204e-07
8.55874e-07
1.27797e-06
3.51051e-06
3.42582e-06
2.07684e-05
6.92708e-06
0.0002939
0.000858671
0.0186762
0.0018511
-0.000281633
0.000862165
-0.00017866
0.000477281
-3.53923e-05
0.000232691
1.71292e-05
0.000116567
2.46038e-05
5.86601e-05
1.84418e-05
2.89077e-05
1.1035e-05
1.37736e-05
5.81909e-06
6.30278e-06
2.80594e-06
2.75533e-06
1.26467e-06
1.14748e-06
5.82986e-07
5.36544e-07
2.75676e-07
1.72949e-07
8.98983e-08
2.22791e-08
-1.64475e-09
-5.63465e-08
-2.99991e-08
-4.99767e-08
3.57089e-08
2.13026e-08
1.03363e-07
4.0792e-08
6.91363e-08
4.77124e-08
8.39546e-08
2.82607e-08
8.83379e-08
1.56969e-08
4.53821e-08
9.54359e-09
-3.49374e-09
-3.63564e-08
-1.57284e-08
-6.45718e-08
-2.41947e-08
-4.28441e-08
-3.22387e-09
-4.41942e-08
2.13956e-08
-3.09585e-08
2.61136e-08
-1.3933e-09
4.46348e-08
1.93132e-08
5.78317e-08
1.94853e-08
4.41115e-08
-2.22182e-08
2.03352e-08
-4.46391e-08
-2.72828e-10
-2.00692e-08
3.46206e-08
9.29988e-09
3.92392e-08
-7.141e-09
1.51611e-08
-2.14296e-08
-6.0786e-09
-4.52311e-08
-1.48782e-08
-3.50353e-08
8.62389e-09
-9.99298e-09
2.0727e-08
-1.63766e-08
-6.09439e-09
-4.0579e-08
-2.58309e-08
-5.15903e-08
-3.21372e-08
-3.17954e-08
-7.09953e-09
-1.37666e-09
5.37361e-08
8.10854e-08
1.98917e-07
3.13828e-07
7.33778e-07
1.08967e-06
3.00739e-06
2.92421e-06
1.79069e-05
6.02415e-06
0.000250127
0.000728453
0.0144876
0.00145281
-0.000222462
0.00068076
-0.000140046
0.000378577
-2.72059e-05
0.000185038
1.42505e-05
9.29093e-05
1.99805e-05
4.68657e-05
1.49351e-05
2.31419e-05
8.92779e-06
1.10458e-05
4.70756e-06
5.05692e-06
2.26473e-06
2.20647e-06
1.02033e-06
9.13892e-07
4.73081e-07
4.34923e-07
2.28459e-07
1.28155e-07
6.93553e-08
4.3896e-09
-1.33517e-08
-6.66751e-08
-3.53502e-08
-5.60583e-08
3.65413e-08
2.04848e-08
1.03353e-07
4.6798e-08
7.44543e-08
5.14551e-08
9.18856e-08
2.9264e-08
8.71658e-08
1.60701e-08
4.36397e-08
9.19715e-09
-1.28987e-09
-3.6412e-08
-1.51375e-08
-6.41818e-08
-2.53416e-08
-4.51262e-08
-3.65021e-09
-4.56863e-08
2.12142e-08
-3.10576e-08
2.74247e-08
-6.32949e-10
4.63658e-08
2.05223e-08
5.82574e-08
1.95634e-08
4.52093e-08
-2.31351e-08
2.08039e-08
-4.50391e-08
-4.91302e-10
-1.98189e-08
3.58262e-08
9.50325e-09
3.98498e-08
-7.11452e-09
1.58107e-08
-2.14001e-08
-6.79466e-09
-4.65398e-08
-1.55577e-08
-3.58057e-08
9.73365e-09
-9.83799e-09
2.13807e-08
-1.58366e-08
-6.26146e-09
-4.13107e-08
-2.65532e-08
-5.30065e-08
-3.39925e-08
-3.41212e-08
-1.05879e-08
-6.69849e-09
4.3253e-08
6.43674e-08
1.62876e-07
2.51838e-07
5.96229e-07
8.7959e-07
2.43171e-06
2.35825e-06
1.4516e-05
4.91695e-06
0.000200614
0.000582776
0.0103278
0.00104453
-0.000160818
0.000491654
-0.000100532
0.000274369
-1.92283e-05
0.00013439
1.07273e-05
6.75938e-05
1.47502e-05
3.41551e-05
1.1e-05
1.6885e-05
6.56354e-06
8.06519e-06
3.45657e-06
3.687e-06
1.65281e-06
1.5995e-06
7.43039e-07
6.54417e-07
3.47586e-07
3.21194e-07
1.74306e-07
7.8899e-08
4.6544e-08
-1.49557e-08
-2.62211e-08
-7.75335e-08
-4.05233e-08
-6.20988e-08
3.69311e-08
1.99513e-08
1.02485e-07
5.24663e-08
7.99421e-08
5.45042e-08
9.89506e-08
3.02695e-08
8.47867e-08
1.59284e-08
4.18439e-08
8.58566e-09
1.11213e-09
-3.60171e-08
-1.47465e-08
-6.35496e-08
-2.61921e-08
-4.73226e-08
-4.08032e-09
-4.70048e-08
2.06903e-08
-3.09804e-08
2.85565e-08
-2.53628e-11
4.77693e-08
2.16347e-08
5.82621e-08
1.94287e-08
4.61396e-08
-2.38959e-08
2.11712e-08
-4.50488e-08
-6.23553e-10
-1.95872e-08
3.67295e-08
9.53381e-09
4.01715e-08
-7.07599e-09
1.63449e-08
-2.1186e-08
-7.44708e-09
-4.76218e-08
-1.60541e-08
-3.6396e-08
1.06997e-08
-9.65859e-09
2.16919e-08
-1.52803e-08
-6.40892e-09
-4.19265e-08
-2.71055e-08
-5.40661e-08
-3.55853e-08
-3.61548e-08
-1.41208e-08
-1.22654e-08
3.18447e-08
4.60899e-08
1.23611e-07
1.8447e-07
4.46133e-07
6.52046e-07
1.79745e-06
1.7406e-06
1.06971e-05
3.6434e-06
0.000146571
0.000424982
0.00618834
0.000629311
-9.73524e-05
0.00029715
-6.03919e-05
0.000166243
-1.14143e-05
8.1598e-05
6.73076e-06
4.10853e-05
9.07607e-06
2.07821e-05
6.75139e-06
1.0272e-05
4.01122e-06
4.9005e-06
2.10312e-06
2.22658e-06
9.8898e-07
9.50063e-07
4.41519e-07
3.76034e-07
2.10597e-07
1.98621e-07
1.15139e-07
2.66148e-08
2.21808e-08
-3.5254e-08
-3.97973e-08
-8.86735e-08
-4.53646e-08
-6.78616e-08
3.68413e-08
1.97526e-08
1.00951e-07
5.76085e-08
8.55123e-08
5.68684e-08
1.04975e-07
3.13297e-08
8.13578e-08
1.52566e-08
4.01354e-08
7.81684e-09
3.644e-09
-3.514e-08
-1.45341e-08
-6.27233e-08
-2.66888e-08
-4.93307e-08
-4.49597e-09
-4.81155e-08
1.98367e-08
-3.07242e-08
2.955e-08
4.35722e-10
4.88498e-08
2.26499e-08
5.79467e-08
1.91518e-08
4.69478e-08
-2.44461e-08
2.14573e-08
-4.46118e-08
-6.2024e-10
-1.93682e-08
3.7353e-08
9.43627e-09
4.02837e-08
-6.98822e-09
1.67884e-08
-2.0752e-08
-7.94275e-09
-4.84124e-08
-1.63115e-08
-3.67414e-08
1.15266e-08
-9.41986e-09
2.17114e-08
-1.4718e-08
-6.4972e-09
-4.24231e-08
-2.74683e-08
-5.47154e-08
-3.68743e-08
-3.78343e-08
-1.75877e-08
-1.79078e-08
1.98369e-08
2.67172e-08
8.20476e-08
1.13279e-07
2.86858e-07
4.11859e-07
1.1203e-06
1.08522e-06
6.56397e-06
2.24707e-06
8.926e-05
0.000258483
0.00206092
0.000210003
-3.2771e-05
9.94443e-05
-1.98845e-05
5.57721e-05
-3.70473e-06
2.75157e-05
2.44504e-06
1.3857e-05
3.13133e-06
7.00887e-06
2.31164e-06
3.44358e-06
1.34449e-06
1.6238e-06
6.86996e-07
7.11246e-07
2.93623e-07
2.74917e-07
1.25243e-07
8.62504e-08
6.65966e-08
7.07225e-08
5.30194e-08
-2.72271e-08
-3.041e-09
-5.59929e-08
-5.36049e-08
-9.98104e-08
-4.97579e-08
-7.31443e-08
3.62347e-08
1.98721e-08
9.8897e-08
6.20236e-08
9.10132e-08
5.85635e-08
1.09785e-07
3.24347e-08
7.70397e-08
1.40646e-08
3.86078e-08
6.97215e-09
6.1872e-09
-3.38069e-08
-1.44845e-08
-6.17698e-08
-2.68294e-08
-5.10894e-08
-4.89927e-09
-4.90051e-08
1.86571e-08
-3.03172e-08
3.04166e-08
7.70687e-10
4.95886e-08
2.35367e-08
5.7371e-08
1.8779e-08
4.7647e-08
-2.47686e-08
2.16574e-08
-4.37242e-08
-4.67776e-10
-1.918e-08
3.76892e-08
9.22815e-09
4.02205e-08
-6.84002e-09
1.7142e-08
-2.01009e-08
-8.22393e-09
-4.88835e-08
-1.63138e-08
-3.68199e-08
1.21978e-08
-9.11883e-09
2.14679e-08
-1.41857e-08
-6.52132e-09
-4.28092e-08
-2.76541e-08
-5.49292e-08
-3.78452e-08
-3.91368e-08
-2.09076e-08
-2.34903e-08
7.52782e-09
6.69798e-09
3.91031e-08
3.98397e-08
1.21914e-07
1.63979e-07
4.1696e-07
4.06787e-07
2.23882e-06
7.75416e-07
2.99738e-05
8.67422e-05
-0.00206249
-0.000210654
3.21877e-05
-9.93224e-05
2.07412e-05
-5.54805e-05
3.96794e-06
-2.69981e-05
-1.93821e-06
-1.36122e-05
-2.90463e-06
-6.89811e-06
-2.19252e-06
-3.45634e-06
-1.36019e-06
-1.69066e-06
-7.5033e-07
-8.2222e-07
-4.11911e-07
-4.08543e-07
-1.95868e-07
-2.0713e-07
-7.97034e-08
-5.88528e-08
-9.92105e-09
-8.11522e-08
-2.84358e-08
-7.6647e-08
-6.71552e-08
-1.10636e-07
-5.3613e-08
-7.7772e-08
3.51373e-08
2.02506e-08
9.64301e-08
6.55247e-08
9.62499e-08
5.96133e-08
1.13221e-07
3.35302e-08
7.20072e-08
1.2367e-08
3.73165e-08
6.11015e-09
8.59916e-09
-3.20756e-08
-1.4576e-08
-6.07542e-08
-2.66415e-08
-5.25665e-08
-5.30382e-09
-4.96713e-08
1.71656e-08
-2.98073e-08
3.11465e-08
1.01746e-09
4.99589e-08
2.42579e-08
5.6563e-08
1.83355e-08
4.82234e-08
-2.48648e-08
2.17566e-08
-4.24234e-08
-1.71902e-10
-1.90475e-08
3.77168e-08
8.91714e-09
3.99848e-08
-6.62298e-09
1.7393e-08
-1.92604e-08
-8.26245e-09
-4.90285e-08
-1.60694e-08
-3.66383e-08
1.26875e-08
-8.7721e-09
2.09769e-08
-1.37215e-08
-6.50051e-09
-4.30938e-08
-2.76838e-08
-5.47047e-08
-3.84963e-08
-4.00634e-08
-2.40152e-08
-2.88976e-08
-4.80226e-09
-1.35253e-08
-4.31331e-09
-3.42702e-08
-4.51165e-08
-8.65772e-08
-2.95321e-07
-2.79649e-07
-2.15105e-06
-7.21752e-07
-2.99731e-05
-8.67493e-05
-0.0061899
-0.00062996
9.67742e-05
-0.000297031
6.12393e-05
-0.000165954
1.16741e-05
-8.10837e-05
-6.22474e-06
-4.08416e-05
-8.85037e-06
-2.06706e-05
-6.63291e-06
-1.02828e-05
-4.02547e-06
-4.96783e-06
-2.16674e-06
-2.33663e-06
-1.10597e-06
-1.08271e-06
-5.11745e-07
-4.96205e-07
-2.23512e-07
-1.86424e-07
-7.15561e-08
-1.33693e-07
-5.33031e-08
-9.66686e-08
-7.99521e-08
-1.20817e-07
-5.68493e-08
-8.15854e-08
3.35836e-08
2.08047e-08
9.3637e-08
6.79691e-08
1.01014e-07
6.00576e-08
1.1516e-07
3.45316e-08
6.64599e-08
1.02352e-08
3.62909e-08
5.28061e-09
1.07456e-08
-3.00202e-08
-1.47675e-08
-5.97177e-08
-2.61657e-08
-5.37385e-08
-5.71896e-09
-5.01069e-08
1.54056e-08
-2.92404e-08
3.17212e-08
1.18666e-09
4.99434e-08
2.47855e-08
5.55374e-08
1.78353e-08
4.86514e-08
-2.47336e-08
2.17443e-08
-4.07663e-08
2.54547e-10
-1.89804e-08
3.74204e-08
8.5118e-09
3.95694e-08
-6.32301e-09
1.75329e-08
-1.82627e-08
-8.0427e-09
-4.88404e-08
-1.55915e-08
-3.62099e-08
1.29761e-08
-8.39789e-09
2.0258e-08
-1.33558e-08
-6.45864e-09
-4.32754e-08
-2.75752e-08
-5.40468e-08
-3.88259e-08
-4.06228e-08
-2.68453e-08
-3.40181e-08
-1.68771e-08
-3.35024e-08
-4.72927e-08
-1.07476e-07
-2.10615e-07
-3.34773e-07
-9.99079e-07
-9.58882e-07
-6.47663e-06
-2.19383e-06
-8.92596e-05
-0.00025849
-0.0103294
-0.00104517
0.00016025
-0.000491544
0.000101361
-0.000274084
1.94814e-05
-0.000133883
-1.02229e-05
-6.73524e-05
-1.45265e-05
-3.40421e-05
-1.08829e-05
-1.68923e-05
-6.57502e-06
-8.13327e-06
-3.52059e-06
-3.79521e-06
-1.76723e-06
-1.73019e-06
-8.12481e-07
-7.73194e-07
-3.6013e-07
-3.084e-07
-1.29843e-07
-1.83423e-07
-7.69287e-08
-1.1549e-07
-9.15182e-08
-1.30018e-07
-5.93963e-08
-8.44479e-08
3.16262e-08
2.14363e-08
9.05807e-08
6.92631e-08
1.0509e-07
5.99429e-08
1.15518e-07
3.5332e-08
6.06087e-08
7.78657e-09
3.55285e-08
4.52291e-09
1.25128e-08
-2.77275e-08
-1.50069e-08
-5.86777e-08
-2.54508e-08
-5.45873e-08
-6.15114e-09
-5.03019e-08
1.3445e-08
-2.86534e-08
3.21097e-08
1.29499e-09
4.95342e-08
2.51018e-08
5.42965e-08
1.72788e-08
4.8893e-08
-2.43716e-08
2.16117e-08
-3.88264e-08
7.8735e-10
-1.89731e-08
3.67939e-08
8.01836e-09
3.8962e-08
-5.92752e-09
1.75603e-08
-1.71435e-08
-7.56178e-09
-4.8309e-08
-1.48974e-08
-3.55502e-08
1.3049e-08
-8.01387e-09
1.93333e-08
-1.31124e-08
-6.42299e-09
-4.33457e-08
-2.73451e-08
-5.29712e-08
-3.8836e-08
-4.08282e-08
-2.93346e-08
-3.87427e-08
-2.84293e-08
-5.27811e-08
-8.8938e-08
-1.78226e-07
-3.70985e-07
-5.75602e-07
-1.67707e-06
-1.61585e-06
-1.06106e-05
-3.59101e-06
-0.000146571
-0.000424989
-0.0144891
-0.00145344
0.000221908
-0.000680659
0.000140848
-0.000378298
2.74492e-05
-0.00018454
-1.37485e-05
-9.26712e-05
-1.97596e-05
-4.67509e-05
-1.48202e-05
-2.31443e-05
-8.93541e-06
-1.11146e-05
-4.77183e-06
-5.16244e-06
-2.37537e-06
-2.33426e-06
-1.08863e-06
-1.03064e-06
-4.85107e-07
-4.21376e-07
-1.82877e-07
-2.28978e-07
-9.85746e-08
-1.32533e-07
-1.01398e-07
-1.37894e-07
-6.11724e-08
-8.6232e-08
2.93575e-08
2.20572e-08
8.73196e-08
6.93796e-08
1.0829e-07
5.93287e-08
1.14279e-07
3.58303e-08
5.46743e-08
5.14659e-09
3.50102e-08
3.88489e-09
1.38359e-08
-2.52752e-08
-1.52226e-08
-5.76091e-08
-2.45324e-08
-5.50791e-08
-6.59138e-09
-5.02265e-08
1.13858e-08
-2.80521e-08
3.22869e-08
1.36785e-09
4.87492e-08
2.52095e-08
5.28497e-08
1.66679e-08
4.89186e-08
-2.37562e-08
2.13613e-08
-3.66678e-08
1.40495e-09
-1.89868e-08
3.58601e-08
7.45564e-09
3.81682e-08
-5.42039e-09
1.74973e-08
-1.59218e-08
-6.81205e-09
-4.74028e-08
-1.39909e-08
-3.46543e-08
1.29129e-08
-7.62393e-09
1.82438e-08
-1.29958e-08
-6.40329e-09
-4.32761e-08
-2.69956e-08
-5.14868e-08
-3.85171e-08
-4.06756e-08
-3.14066e-08
-4.29442e-08
-3.91863e-08
-7.08951e-08
-1.28356e-07
-2.44992e-07
-5.22695e-07
-8.04131e-07
-2.31264e-06
-2.23588e-06
-1.44308e-05
-4.86581e-06