/*--------------------------------*- C++ -*----------------------------------*\
| =========                 |                                                 |
| \\      /  F ield         | OpenFOAM: The Open Source CFD Toolbox           |
|  \\    /   O peration     | Version:  v1906                                 |
|   \\  /    A nd           | Web:      www.OpenFOAM.com                      |
|    \\/     M anipulation  |                                                 |
\*---------------------------------------------------------------------------*/
FoamFile
{
    version     2.0;
    format      ascii;
    class       volVectorField;
    location    "0.5";
    object      B;
}
// * * * * * * * * * * * * * * * * * * * * * * * * * * * * * * * * * * * * * //

dimensions      [1 0 -2 0 0 -1 0];


internalField   nonuniform List<vector> 
4000
(
(0.482877 20.0487 0)
(0.501256 19.9997 0)
(0.484868 19.9902 0)
(0.491003 19.9892 0)
(0.491959 19.9906 0)
(0.494052 19.9929 0)
(0.494627 19.9949 0)
(0.495112 19.9965 0)
(0.495255 19.9976 0)
(0.495356 19.9984 0)
(0.495383 19.999 0)
(0.495395 19.9993 0)
(0.495387 19.9996 0)
(0.495375 19.9997 0)
(0.49536 19.9998 0)
(0.495345 19.9999 0)
(0.495332 19.9999 0)
(0.495321 20 0)
(0.495312 20 0)
(0.495305 20 0)
(0.495301 20 0)
(0.495297 20 0)
(0.495295 20 0)
(0.495293 20 0)
(0.495292 20 0)
(0.495291 20 0)
(0.49529 20 0)
(0.49529 20 0)
(0.49529 20 0)
(0.49529 20 0)
(0.49529 20 0)
(0.49529 20 0)
(0.49529 20 0)
(0.49529 20 0)
(0.495289 20 0)
(0.495289 20 0)
(0.495289 20 0)
(0.495289 20 0)
(0.495289 20 0)
(0.495289 20 0)
(0.495289 20 0)
(0.495289 20 0)
(0.495289 20 0)
(0.49529 20 0)
(0.49529 20 0)
(0.49529 20 0)
(0.49529 20 0)
(0.49529 20 0)
(0.495289 20 0)
(0.495289 20 0)
(0.495289 20 0)
(0.495289 20 0)
(0.495289 20 0)
(0.495289 20 0)
(0.495289 20 0)
(0.495289 20 0)
(0.495289 20 0)
(0.495289 20 0)
(0.495289 20 0)
(0.495289 20 0)
(0.495289 20 0)
(0.495289 20 0)
(0.495289 20 0)
(0.495289 20 0)
(0.495289 20 0)
(0.495289 20 0)
(0.49529 20 0)
(0.49529 20 0)
(0.49529 20 0)
(0.49529 20 0)
(0.49529 20 0)
(0.49529 20 0)
(0.49529 20 0)
(0.49529 20 0)
(0.49529 20 0)
(0.49529 20 0)
(0.495289 20 0)
(0.495289 20 0)
(0.495289 20 0)
(0.495289 20 0)
(0.495289 20 0)
(0.495289 20 0)
(0.495289 20 0)
(0.495289 20 0)
(0.495289 20 0)
(0.495289 20 0)
(0.495289 20 0)
(0.495289 20 0)
(0.495289 20 0)
(0.495289 20 0)
(0.49529 20 0)
(0.495291 20 0)
(0.495295 20 0)
(0.495303 20 0)
(0.495321 20 0)
(0.49535 20 0)
(0.4954 20 0)
(0.495372 20.0002 0)
(0.495263 20.0005 0)
(0.494404 20.0008 0)
(0.842821 20.0263 0)
(0.895997 19.9811 0)
(0.898033 19.9687 0)
(0.913367 19.9679 0)
(0.917978 19.9729 0)
(0.92281 19.9796 0)
(0.924851 19.9855 0)
(0.926424 19.9902 0)
(0.927277 19.9936 0)
(0.927907 19.996 0)
(0.928304 19.9976 0)
(0.928581 19.9988 0)
(0.928757 19.9995 0)
(0.928871 20 0)
(0.928938 20.0003 0)
(0.928977 20.0005 0)
(0.928998 20.0006 0)
(0.929008 20.0007 0)
(0.929012 20.0007 0)
(0.929013 20.0008 0)
(0.929012 20.0008 0)
(0.929011 20.0008 0)
(0.92901 20.0008 0)
(0.929009 20.0008 0)
(0.929008 20.0008 0)
(0.929008 20.0008 0)
(0.929007 20.0008 0)
(0.929007 20.0008 0)
(0.929007 20.0008 0)
(0.929006 20.0008 0)
(0.929006 20.0008 0)
(0.929006 20.0008 0)
(0.929006 20.0008 0)
(0.929006 20.0008 0)
(0.929006 20.0008 0)
(0.929006 20.0008 0)
(0.929006 20.0008 0)
(0.929006 20.0008 0)
(0.929006 20.0008 0)
(0.929006 20.0008 0)
(0.929006 20.0008 0)
(0.929006 20.0008 0)
(0.929006 20.0008 0)
(0.929006 20.0008 0)
(0.929006 20.0008 0)
(0.929006 20.0008 0)
(0.929006 20.0008 0)
(0.929006 20.0008 0)
(0.929006 20.0008 0)
(0.929006 20.0008 0)
(0.929006 20.0008 0)
(0.929006 20.0008 0)
(0.929006 20.0008 0)
(0.929006 20.0008 0)
(0.929006 20.0008 0)
(0.929006 20.0008 0)
(0.929005 20.0008 0)
(0.929005 20.0008 0)
(0.929005 20.0008 0)
(0.929005 20.0008 0)
(0.929005 20.0008 0)
(0.929005 20.0008 0)
(0.929006 20.0008 0)
(0.929006 20.0008 0)
(0.929006 20.0008 0)
(0.929006 20.0008 0)
(0.929006 20.0008 0)
(0.929006 20.0008 0)
(0.929006 20.0008 0)
(0.929006 20.0008 0)
(0.929007 20.0008 0)
(0.929007 20.0008 0)
(0.929007 20.0008 0)
(0.929006 20.0008 0)
(0.929006 20.0008 0)
(0.929006 20.0008 0)
(0.929006 20.0008 0)
(0.929006 20.0008 0)
(0.929005 20.0008 0)
(0.929005 20.0008 0)
(0.929005 20.0008 0)
(0.929005 20.0008 0)
(0.929006 20.0008 0)
(0.929006 20.0008 0)
(0.929006 20.0008 0)
(0.929006 20.0008 0)
(0.929007 20.0008 0)
(0.929007 20.0008 0)
(0.929009 20.0008 0)
(0.929011 20.0008 0)
(0.929015 20.0008 0)
(0.929024 20.0008 0)
(0.929041 20.0007 0)
(0.929073 20.0007 0)
(0.929132 20.0007 0)
(0.929231 20.0007 0)
(0.929396 20.0009 0)
(0.929518 20.0014 0)
(0.929503 20.0023 0)
(0.927893 20.0032 0)
(0.947574 19.9446 0)
(1.01657 19.9448 0)
(1.04518 19.9425 0)
(1.06903 19.945 0)
(1.07796 19.9545 0)
(1.085 19.9657 0)
(1.08851 19.9755 0)
(1.09115 19.9832 0)
(1.09281 19.9888 0)
(1.09405 19.9928 0)
(1.09491 19.9955 0)
(1.09554 19.9974 0)
(1.09596 19.9987 0)
(1.09626 19.9995 0)
(1.09645 20.0001 0)
(1.09658 20.0004 0)
(1.09665 20.0006 0)
(1.0967 20.0007 0)
(1.09673 20.0008 0)
(1.09675 20.0008 0)
(1.09676 20.0009 0)
(1.09676 20.0009 0)
(1.09677 20.0009 0)
(1.09677 20.0009 0)
(1.09677 20.0009 0)
(1.09677 20.0009 0)
(1.09677 20.0009 0)
(1.09677 20.0009 0)
(1.09677 20.0009 0)
(1.09677 20.0009 0)
(1.09677 20.0009 0)
(1.09677 20.0009 0)
(1.09677 20.0009 0)
(1.09677 20.0009 0)
(1.09677 20.0009 0)
(1.09677 20.0009 0)
(1.09677 20.0009 0)
(1.09677 20.0009 0)
(1.09677 20.0009 0)
(1.09677 20.0009 0)
(1.09677 20.0009 0)
(1.09677 20.0009 0)
(1.09677 20.0009 0)
(1.09677 20.0009 0)
(1.09677 20.0009 0)
(1.09677 20.0009 0)
(1.09677 20.0009 0)
(1.09677 20.0009 0)
(1.09677 20.0009 0)
(1.09677 20.0009 0)
(1.09677 20.0009 0)
(1.09677 20.0009 0)
(1.09677 20.0009 0)
(1.09677 20.0009 0)
(1.09677 20.0009 0)
(1.09677 20.0009 0)
(1.09677 20.0009 0)
(1.09677 20.0009 0)
(1.09677 20.0009 0)
(1.09677 20.0009 0)
(1.09677 20.0009 0)
(1.09677 20.0009 0)
(1.09677 20.0009 0)
(1.09677 20.0009 0)
(1.09677 20.0009 0)
(1.09677 20.0009 0)
(1.09677 20.0009 0)
(1.09677 20.0009 0)
(1.09677 20.0009 0)
(1.09677 20.0009 0)
(1.09677 20.0009 0)
(1.09677 20.0009 0)
(1.09677 20.0009 0)
(1.09677 20.0009 0)
(1.09677 20.0009 0)
(1.09677 20.0009 0)
(1.09677 20.0009 0)
(1.09677 20.0009 0)
(1.09677 20.0009 0)
(1.09677 20.0009 0)
(1.09677 20.0009 0)
(1.09677 20.0009 0)
(1.09677 20.0009 0)
(1.09677 20.0009 0)
(1.09677 20.0009 0)
(1.09677 20.0009 0)
(1.09677 20.0009 0)
(1.09677 20.0009 0)
(1.09678 20.0009 0)
(1.09678 20.0009 0)
(1.09679 20.0009 0)
(1.09681 20.0008 0)
(1.09684 20.0008 0)
(1.0969 20.0008 0)
(1.097 20.0007 0)
(1.09718 20.0008 0)
(1.09749 20.001 0)
(1.09789 20.0017 0)
(1.09824 20.0032 0)
(1.09706 20.0047 0)
(0.946021 19.8537 0)
(1.01716 19.897 0)
(1.06689 19.9113 0)
(1.09814 19.9208 0)
(1.1114 19.9359 0)
(1.1204 19.9516 0)
(1.12527 19.9652 0)
(1.12887 19.9758 0)
(1.1313 19.9836 0)
(1.13314 19.9892 0)
(1.13446 19.9931 0)
(1.13543 19.9958 0)
(1.13611 19.9976 0)
(1.13659 19.9988 0)
(1.13692 19.9995 0)
(1.13713 20 0)
(1.13728 20.0003 0)
(1.13737 20.0005 0)
(1.13743 20.0006 0)
(1.13746 20.0006 0)
(1.13748 20.0007 0)
(1.1375 20.0007 0)
(1.1375 20.0007 0)
(1.13751 20.0007 0)
(1.13751 20.0007 0)
(1.13751 20.0007 0)
(1.13751 20.0007 0)
(1.13751 20.0007 0)
(1.13752 20.0007 0)
(1.13752 20.0007 0)
(1.13752 20.0007 0)
(1.13752 20.0007 0)
(1.13752 20.0007 0)
(1.13752 20.0007 0)
(1.13752 20.0007 0)
(1.13752 20.0007 0)
(1.13752 20.0007 0)
(1.13752 20.0007 0)
(1.13752 20.0007 0)
(1.13752 20.0007 0)
(1.13752 20.0007 0)
(1.13752 20.0007 0)
(1.13752 20.0007 0)
(1.13752 20.0007 0)
(1.13752 20.0007 0)
(1.13752 20.0007 0)
(1.13752 20.0007 0)
(1.13752 20.0007 0)
(1.13752 20.0007 0)
(1.13752 20.0007 0)
(1.13752 20.0007 0)
(1.13752 20.0007 0)
(1.13752 20.0007 0)
(1.13752 20.0007 0)
(1.13752 20.0007 0)
(1.13752 20.0007 0)
(1.13752 20.0007 0)
(1.13751 20.0007 0)
(1.13751 20.0007 0)
(1.13751 20.0007 0)
(1.13751 20.0007 0)
(1.13751 20.0007 0)
(1.13752 20.0007 0)
(1.13752 20.0007 0)
(1.13752 20.0007 0)
(1.13752 20.0007 0)
(1.13752 20.0007 0)
(1.13752 20.0007 0)
(1.13752 20.0007 0)
(1.13752 20.0007 0)
(1.13752 20.0007 0)
(1.13752 20.0007 0)
(1.13752 20.0007 0)
(1.13752 20.0007 0)
(1.13752 20.0007 0)
(1.13752 20.0007 0)
(1.13752 20.0007 0)
(1.13752 20.0007 0)
(1.13751 20.0007 0)
(1.13751 20.0007 0)
(1.13751 20.0007 0)
(1.13752 20.0007 0)
(1.13752 20.0007 0)
(1.13752 20.0007 0)
(1.13752 20.0007 0)
(1.13752 20.0007 0)
(1.13752 20.0007 0)
(1.13752 20.0007 0)
(1.13753 20.0007 0)
(1.13754 20.0007 0)
(1.13755 20.0007 0)
(1.13758 20.0006 0)
(1.13763 20.0006 0)
(1.13771 20.0005 0)
(1.13786 20.0005 0)
(1.13814 20.0005 0)
(1.13861 20.0008 0)
(1.13936 20.0016 0)
(1.14028 20.0035 0)
(1.14032 20.0053 0)
(0.901598 19.7708 0)
(0.967683 19.8442 0)
(1.03082 19.8767 0)
(1.06785 19.8959 0)
(1.08501 19.9173 0)
(1.09574 19.9378 0)
(1.10182 19.9551 0)
(1.10625 19.9686 0)
(1.10935 19.9785 0)
(1.11171 19.9856 0)
(1.11344 19.9906 0)
(1.11472 19.9941 0)
(1.11564 19.9964 0)
(1.11629 19.998 0)
(1.11674 19.999 0)
(1.11704 19.9996 0)
(1.11724 20 0)
(1.11737 20.0002 0)
(1.11746 20.0004 0)
(1.11751 20.0005 0)
(1.11755 20.0005 0)
(1.11757 20.0005 0)
(1.11758 20.0005 0)
(1.11759 20.0005 0)
(1.11759 20.0006 0)
(1.11759 20.0006 0)
(1.1176 20.0006 0)
(1.1176 20.0006 0)
(1.1176 20.0006 0)
(1.1176 20.0006 0)
(1.1176 20.0006 0)
(1.1176 20.0006 0)
(1.1176 20.0006 0)
(1.1176 20.0006 0)
(1.1176 20.0006 0)
(1.1176 20.0006 0)
(1.1176 20.0006 0)
(1.1176 20.0006 0)
(1.1176 20.0006 0)
(1.1176 20.0006 0)
(1.1176 20.0006 0)
(1.1176 20.0006 0)
(1.1176 20.0006 0)
(1.1176 20.0006 0)
(1.1176 20.0006 0)
(1.1176 20.0006 0)
(1.1176 20.0006 0)
(1.1176 20.0006 0)
(1.1176 20.0006 0)
(1.1176 20.0006 0)
(1.1176 20.0006 0)
(1.1176 20.0006 0)
(1.1176 20.0006 0)
(1.1176 20.0006 0)
(1.1176 20.0006 0)
(1.1176 20.0006 0)
(1.1176 20.0006 0)
(1.1176 20.0006 0)
(1.1176 20.0006 0)
(1.1176 20.0006 0)
(1.1176 20.0006 0)
(1.1176 20.0006 0)
(1.1176 20.0006 0)
(1.1176 20.0006 0)
(1.1176 20.0006 0)
(1.1176 20.0006 0)
(1.1176 20.0006 0)
(1.1176 20.0006 0)
(1.1176 20.0006 0)
(1.1176 20.0006 0)
(1.1176 20.0006 0)
(1.1176 20.0006 0)
(1.1176 20.0006 0)
(1.1176 20.0006 0)
(1.1176 20.0006 0)
(1.1176 20.0006 0)
(1.1176 20.0006 0)
(1.1176 20.0006 0)
(1.1176 20.0006 0)
(1.1176 20.0006 0)
(1.1176 20.0006 0)
(1.1176 20.0006 0)
(1.1176 20.0006 0)
(1.1176 20.0006 0)
(1.1176 20.0006 0)
(1.1176 20.0006 0)
(1.1176 20.0006 0)
(1.11761 20.0005 0)
(1.11762 20.0005 0)
(1.11763 20.0005 0)
(1.11765 20.0005 0)
(1.11768 20.0005 0)
(1.11775 20.0004 0)
(1.11786 20.0003 0)
(1.11806 20.0003 0)
(1.11843 20.0002 0)
(1.11908 20.0005 0)
(1.12022 20.0014 0)
(1.1218 20.0034 0)
(1.12338 20.0053 0)
(0.841346 19.6989 0)
(0.899497 19.7907 0)
(0.969348 19.8402 0)
(1.01033 19.8705 0)
(1.0307 19.899 0)
(1.04289 19.9243 0)
(1.04999 19.9453 0)
(1.05511 19.9615 0)
(1.05876 19.9735 0)
(1.06155 19.9821 0)
(1.06362 19.9882 0)
(1.06516 19.9925 0)
(1.06627 19.9953 0)
(1.06707 19.9972 0)
(1.06762 19.9985 0)
(1.068 19.9993 0)
(1.06825 19.9998 0)
(1.06842 20.0001 0)
(1.06852 20.0002 0)
(1.06859 20.0003 0)
(1.06864 20.0004 0)
(1.06867 20.0004 0)
(1.06868 20.0005 0)
(1.06869 20.0005 0)
(1.0687 20.0005 0)
(1.0687 20.0005 0)
(1.06871 20.0005 0)
(1.06871 20.0005 0)
(1.06871 20.0005 0)
(1.06871 20.0005 0)
(1.06871 20.0005 0)
(1.06871 20.0005 0)
(1.06871 20.0005 0)
(1.06871 20.0005 0)
(1.06871 20.0005 0)
(1.06871 20.0005 0)
(1.06871 20.0005 0)
(1.06871 20.0005 0)
(1.06871 20.0005 0)
(1.06871 20.0005 0)
(1.06871 20.0005 0)
(1.06871 20.0005 0)
(1.06871 20.0005 0)
(1.06871 20.0005 0)
(1.06871 20.0005 0)
(1.06871 20.0005 0)
(1.06871 20.0005 0)
(1.06871 20.0005 0)
(1.06871 20.0005 0)
(1.06871 20.0005 0)
(1.06871 20.0005 0)
(1.06871 20.0005 0)
(1.06871 20.0005 0)
(1.06871 20.0005 0)
(1.06871 20.0005 0)
(1.06871 20.0005 0)
(1.06871 20.0005 0)
(1.06871 20.0005 0)
(1.06871 20.0005 0)
(1.06871 20.0005 0)
(1.06871 20.0005 0)
(1.06871 20.0005 0)
(1.06871 20.0005 0)
(1.06871 20.0005 0)
(1.06871 20.0005 0)
(1.06871 20.0005 0)
(1.06871 20.0005 0)
(1.06871 20.0005 0)
(1.06871 20.0005 0)
(1.06871 20.0005 0)
(1.06871 20.0005 0)
(1.06871 20.0005 0)
(1.06871 20.0005 0)
(1.06871 20.0005 0)
(1.06871 20.0005 0)
(1.06871 20.0005 0)
(1.06871 20.0005 0)
(1.06871 20.0005 0)
(1.06871 20.0005 0)
(1.06871 20.0005 0)
(1.06871 20.0005 0)
(1.06871 20.0005 0)
(1.06871 20.0005 0)
(1.06871 20.0005 0)
(1.06871 20.0005 0)
(1.06872 20.0005 0)
(1.06872 20.0005 0)
(1.06872 20.0005 0)
(1.06873 20.0005 0)
(1.06875 20.0004 0)
(1.06877 20.0004 0)
(1.06882 20.0004 0)
(1.06889 20.0003 0)
(1.06903 20.0002 0)
(1.06928 20.0001 0)
(1.06974 20 0)
(1.07057 20.0002 0)
(1.0721 20.001 0)
(1.07436 20.0029 0)
(1.07743 20.0047 0)
(0.776559 19.6376 0)
(0.826238 19.7389 0)
(0.897795 19.8033 0)
(0.940971 19.8451 0)
(0.963728 19.881 0)
(0.977067 19.9112 0)
(0.984984 19.9358 0)
(0.990634 19.9547 0)
(0.994713 19.9686 0)
(0.997833 19.9787 0)
(1.00016 19.9859 0)
(1.0019 19.9909 0)
(1.00317 19.9943 0)
(1.00407 19.9965 0)
(1.00471 19.998 0)
(1.00514 19.999 0)
(1.00544 19.9995 0)
(1.00563 19.9999 0)
(1.00576 20.0001 0)
(1.00584 20.0003 0)
(1.0059 20.0003 0)
(1.00593 20.0004 0)
(1.00595 20.0004 0)
(1.00597 20.0004 0)
(1.00597 20.0004 0)
(1.00598 20.0004 0)
(1.00598 20.0004 0)
(1.00598 20.0004 0)
(1.00598 20.0004 0)
(1.00599 20.0004 0)
(1.00599 20.0004 0)
(1.00599 20.0004 0)
(1.00599 20.0004 0)
(1.00599 20.0004 0)
(1.00599 20.0004 0)
(1.00599 20.0004 0)
(1.00599 20.0004 0)
(1.00599 20.0004 0)
(1.00599 20.0004 0)
(1.00599 20.0004 0)
(1.00599 20.0004 0)
(1.00599 20.0004 0)
(1.00599 20.0004 0)
(1.00599 20.0004 0)
(1.00599 20.0004 0)
(1.00599 20.0004 0)
(1.00599 20.0004 0)
(1.00599 20.0004 0)
(1.00599 20.0004 0)
(1.00599 20.0004 0)
(1.00599 20.0004 0)
(1.00599 20.0004 0)
(1.00599 20.0004 0)
(1.00599 20.0004 0)
(1.00599 20.0004 0)
(1.00599 20.0004 0)
(1.00599 20.0004 0)
(1.00599 20.0004 0)
(1.00599 20.0004 0)
(1.00599 20.0004 0)
(1.00599 20.0004 0)
(1.00599 20.0004 0)
(1.00599 20.0004 0)
(1.00599 20.0004 0)
(1.00599 20.0004 0)
(1.00599 20.0004 0)
(1.00599 20.0004 0)
(1.00599 20.0004 0)
(1.00599 20.0004 0)
(1.00599 20.0004 0)
(1.00599 20.0004 0)
(1.00599 20.0004 0)
(1.00599 20.0004 0)
(1.00599 20.0004 0)
(1.00599 20.0004 0)
(1.00599 20.0004 0)
(1.00599 20.0004 0)
(1.00599 20.0004 0)
(1.00599 20.0004 0)
(1.00599 20.0004 0)
(1.00599 20.0004 0)
(1.00599 20.0004 0)
(1.00599 20.0004 0)
(1.00599 20.0004 0)
(1.00599 20.0004 0)
(1.00599 20.0004 0)
(1.006 20.0004 0)
(1.006 20.0004 0)
(1.00601 20.0004 0)
(1.00603 20.0004 0)
(1.00606 20.0004 0)
(1.00611 20.0003 0)
(1.0062 20.0002 0)
(1.00636 20.0001 0)
(1.00665 19.9999 0)
(1.0072 19.9998 0)
(1.0082 19.9999 0)
(1.01009 20.0005 0)
(1.01296 20.002 0)
(1.01728 20.0036 0)
(0.711691 19.5857 0)
(0.753454 19.6903 0)
(0.823287 19.767 0)
(0.867102 19.82 0)
(0.891398 19.8634 0)
(0.905529 19.8986 0)
(0.914037 19.9266 0)
(0.920063 19.948 0)
(0.92444 19.9639 0)
(0.927788 19.9754 0)
(0.930301 19.9836 0)
(0.932181 19.9893 0)
(0.933554 19.9932 0)
(0.93454 19.9958 0)
(0.935234 19.9975 0)
(0.935714 19.9986 0)
(0.936039 19.9993 0)
(0.936257 19.9998 0)
(0.9364 20 0)
(0.936493 20.0002 0)
(0.936552 20.0003 0)
(0.93659 20.0003 0)
(0.936614 20.0004 0)
(0.936629 20.0004 0)
(0.936638 20.0004 0)
(0.936644 20.0004 0)
(0.936648 20.0004 0)
(0.93665 20.0004 0)
(0.936652 20.0004 0)
(0.936653 20.0004 0)
(0.936653 20.0004 0)
(0.936654 20.0004 0)
(0.936654 20.0004 0)
(0.936654 20.0004 0)
(0.936654 20.0004 0)
(0.936654 20.0004 0)
(0.936654 20.0004 0)
(0.936654 20.0004 0)
(0.936654 20.0004 0)
(0.936654 20.0004 0)
(0.936654 20.0004 0)
(0.936655 20.0004 0)
(0.936655 20.0004 0)
(0.936655 20.0004 0)
(0.936655 20.0004 0)
(0.936655 20.0004 0)
(0.936655 20.0004 0)
(0.936655 20.0004 0)
(0.936655 20.0004 0)
(0.936655 20.0004 0)
(0.936655 20.0004 0)
(0.936655 20.0004 0)
(0.936655 20.0004 0)
(0.936654 20.0004 0)
(0.936654 20.0004 0)
(0.936654 20.0004 0)
(0.936654 20.0004 0)
(0.936654 20.0004 0)
(0.936654 20.0004 0)
(0.936653 20.0004 0)
(0.936653 20.0004 0)
(0.936653 20.0004 0)
(0.936654 20.0004 0)
(0.936654 20.0004 0)
(0.936654 20.0004 0)
(0.936654 20.0004 0)
(0.936655 20.0004 0)
(0.936655 20.0004 0)
(0.936655 20.0004 0)
(0.936655 20.0004 0)
(0.936656 20.0004 0)
(0.936656 20.0004 0)
(0.936656 20.0004 0)
(0.936655 20.0004 0)
(0.936655 20.0004 0)
(0.936655 20.0004 0)
(0.936654 20.0004 0)
(0.936654 20.0004 0)
(0.936653 20.0004 0)
(0.936653 20.0004 0)
(0.936653 20.0004 0)
(0.936654 20.0004 0)
(0.936654 20.0004 0)
(0.936655 20.0004 0)
(0.936657 20.0004 0)
(0.936659 20.0004 0)
(0.936663 20.0004 0)
(0.936669 20.0004 0)
(0.93668 20.0004 0)
(0.936699 20.0004 0)
(0.936731 20.0003 0)
(0.936788 20.0003 0)
(0.936888 20.0002 0)
(0.937068 20 0)
(0.937396 19.9998 0)
(0.938021 19.9996 0)
(0.939172 19.9995 0)
(0.941366 19.9998 0)
(0.944744 20.0009 0)
(0.950018 20.002 0)
(0.648276 19.5417 0)
(0.683088 19.6456 0)
(0.749007 19.7321 0)
(0.792161 19.7958 0)
(0.817177 19.8464 0)
(0.831731 19.8865 0)
(0.840596 19.9179 0)
(0.846838 19.9417 0)
(0.851388 19.9594 0)
(0.854867 19.9722 0)
(0.857486 19.9814 0)
(0.859448 19.9878 0)
(0.860886 19.9922 0)
(0.861922 19.9951 0)
(0.862653 19.9971 0)
(0.863161 19.9983 0)
(0.863506 19.9991 0)
(0.863738 19.9996 0)
(0.863891 19.9999 0)
(0.86399 20.0001 0)
(0.864054 20.0002 0)
(0.864095 20.0003 0)
(0.864121 20.0003 0)
(0.864137 20.0004 0)
(0.864148 20.0004 0)
(0.864154 20.0004 0)
(0.864158 20.0004 0)
(0.864161 20.0004 0)
(0.864162 20.0004 0)
(0.864163 20.0004 0)
(0.864164 20.0004 0)
(0.864165 20.0004 0)
(0.864165 20.0004 0)
(0.864165 20.0004 0)
(0.864165 20.0004 0)
(0.864165 20.0004 0)
(0.864165 20.0004 0)
(0.864165 20.0004 0)
(0.864165 20.0004 0)
(0.864165 20.0004 0)
(0.864165 20.0004 0)
(0.864166 20.0004 0)
(0.864166 20.0004 0)
(0.864166 20.0004 0)
(0.864166 20.0004 0)
(0.864166 20.0004 0)
(0.864166 20.0004 0)
(0.864166 20.0004 0)
(0.864166 20.0004 0)
(0.864166 20.0004 0)
(0.864166 20.0004 0)
(0.864166 20.0004 0)
(0.864166 20.0004 0)
(0.864166 20.0004 0)
(0.864165 20.0004 0)
(0.864165 20.0004 0)
(0.864165 20.0004 0)
(0.864165 20.0004 0)
(0.864165 20.0004 0)
(0.864164 20.0004 0)
(0.864164 20.0004 0)
(0.864164 20.0004 0)
(0.864165 20.0004 0)
(0.864165 20.0004 0)
(0.864165 20.0004 0)
(0.864165 20.0004 0)
(0.864166 20.0004 0)
(0.864166 20.0004 0)
(0.864166 20.0004 0)
(0.864167 20.0004 0)
(0.864167 20.0004 0)
(0.864167 20.0004 0)
(0.864167 20.0004 0)
(0.864167 20.0004 0)
(0.864166 20.0004 0)
(0.864166 20.0004 0)
(0.864165 20.0004 0)
(0.864165 20.0004 0)
(0.864164 20.0004 0)
(0.864164 20.0004 0)
(0.864164 20.0004 0)
(0.864165 20.0004 0)
(0.864165 20.0004 0)
(0.864167 20.0004 0)
(0.864168 20.0004 0)
(0.864171 20.0004 0)
(0.864175 20.0004 0)
(0.864182 20.0004 0)
(0.864193 20.0004 0)
(0.864213 20.0003 0)
(0.864247 20.0003 0)
(0.864308 20.0002 0)
(0.864416 20.0001 0)
(0.864611 19.9999 0)
(0.864969 19.9996 0)
(0.865656 19.9993 0)
(0.866923 19.999 0)
(0.869358 19.9989 0)
(0.873116 19.9994 0)
(0.879027 20 0)
(0.586657 19.5046 0)
(0.615545 19.6053 0)
(0.676251 19.6993 0)
(0.717706 19.7726 0)
(0.742693 19.8302 0)
(0.757299 19.875 0)
(0.766288 19.9096 0)
(0.772588 19.9357 0)
(0.777191 19.9551 0)
(0.780706 19.9692 0)
(0.783357 19.9792 0)
(0.785348 19.9863 0)
(0.786809 19.9912 0)
(0.787865 19.9944 0)
(0.788612 19.9966 0)
(0.789131 19.998 0)
(0.789486 19.9989 0)
(0.789725 19.9995 0)
(0.789883 19.9999 0)
(0.789986 20.0001 0)
(0.790053 20.0002 0)
(0.790095 20.0003 0)
(0.790122 20.0003 0)
(0.79014 20.0003 0)
(0.79015 20.0004 0)
(0.790157 20.0004 0)
(0.790161 20.0004 0)
(0.790164 20.0004 0)
(0.790166 20.0004 0)
(0.790167 20.0004 0)
(0.790168 20.0004 0)
(0.790168 20.0004 0)
(0.790168 20.0004 0)
(0.790168 20.0004 0)
(0.790168 20.0004 0)
(0.790168 20.0004 0)
(0.790168 20.0004 0)
(0.790169 20.0004 0)
(0.790169 20.0004 0)
(0.790169 20.0004 0)
(0.790169 20.0004 0)
(0.790169 20.0004 0)
(0.790169 20.0004 0)
(0.79017 20.0004 0)
(0.79017 20.0004 0)
(0.79017 20.0004 0)
(0.79017 20.0004 0)
(0.79017 20.0004 0)
(0.79017 20.0004 0)
(0.79017 20.0004 0)
(0.79017 20.0004 0)
(0.79017 20.0004 0)
(0.79017 20.0004 0)
(0.790169 20.0004 0)
(0.790169 20.0004 0)
(0.790169 20.0004 0)
(0.790169 20.0004 0)
(0.790168 20.0004 0)
(0.790168 20.0004 0)
(0.790168 20.0004 0)
(0.790168 20.0004 0)
(0.790168 20.0004 0)
(0.790168 20.0004 0)
(0.790168 20.0004 0)
(0.790169 20.0004 0)
(0.790169 20.0004 0)
(0.790169 20.0004 0)
(0.79017 20.0004 0)
(0.79017 20.0004 0)
(0.79017 20.0004 0)
(0.790171 20.0004 0)
(0.790171 20.0004 0)
(0.790171 20.0004 0)
(0.79017 20.0004 0)
(0.79017 20.0004 0)
(0.790169 20.0004 0)
(0.790169 20.0004 0)
(0.790168 20.0004 0)
(0.790168 20.0004 0)
(0.790168 20.0004 0)
(0.790168 20.0004 0)
(0.790168 20.0004 0)
(0.790169 20.0004 0)
(0.79017 20.0004 0)
(0.790172 20.0004 0)
(0.790175 20.0004 0)
(0.790179 20.0004 0)
(0.790186 20.0004 0)
(0.790198 20.0003 0)
(0.790218 20.0003 0)
(0.790254 20.0003 0)
(0.790317 20.0002 0)
(0.790429 20 0)
(0.790636 19.9998 0)
(0.791015 19.9995 0)
(0.791745 19.999 0)
(0.793093 19.9985 0)
(0.795688 19.998 0)
(0.799688 19.9978 0)
(0.805943 19.9977 0)
(0.526729 19.4731 0)
(0.550632 19.5694 0)
(0.605433 19.669 0)
(0.644386 19.7509 0)
(0.668678 19.815 0)
(0.682982 19.8642 0)
(0.691867 19.9019 0)
(0.698075 19.9301 0)
(0.702615 19.9511 0)
(0.706078 19.9663 0)
(0.708694 19.9772 0)
(0.71066 19.9849 0)
(0.712106 19.9902 0)
(0.713152 19.9938 0)
(0.713895 19.9962 0)
(0.714412 19.9977 0)
(0.714766 19.9987 0)
(0.715005 19.9994 0)
(0.715164 19.9998 0)
(0.715268 20 0)
(0.715335 20.0002 0)
(0.715378 20.0002 0)
(0.715406 20.0003 0)
(0.715423 20.0003 0)
(0.715434 20.0003 0)
(0.715441 20.0004 0)
(0.715445 20.0004 0)
(0.715448 20.0004 0)
(0.71545 20.0004 0)
(0.715451 20.0004 0)
(0.715452 20.0004 0)
(0.715452 20.0004 0)
(0.715452 20.0004 0)
(0.715452 20.0004 0)
(0.715452 20.0004 0)
(0.715452 20.0004 0)
(0.715452 20.0004 0)
(0.715452 20.0004 0)
(0.715453 20.0004 0)
(0.715453 20.0004 0)
(0.715453 20.0004 0)
(0.715453 20.0004 0)
(0.715453 20.0004 0)
(0.715453 20.0004 0)
(0.715454 20.0004 0)
(0.715454 20.0004 0)
(0.715454 20.0004 0)
(0.715454 20.0004 0)
(0.715454 20.0004 0)
(0.715454 20.0004 0)
(0.715454 20.0004 0)
(0.715454 20.0004 0)
(0.715453 20.0004 0)
(0.715453 20.0004 0)
(0.715453 20.0004 0)
(0.715453 20.0004 0)
(0.715452 20.0004 0)
(0.715452 20.0004 0)
(0.715452 20.0004 0)
(0.715452 20.0004 0)
(0.715452 20.0004 0)
(0.715452 20.0004 0)
(0.715452 20.0004 0)
(0.715452 20.0004 0)
(0.715453 20.0004 0)
(0.715453 20.0004 0)
(0.715453 20.0004 0)
(0.715454 20.0004 0)
(0.715454 20.0004 0)
(0.715454 20.0004 0)
(0.715455 20.0004 0)
(0.715455 20.0004 0)
(0.715455 20.0004 0)
(0.715454 20.0004 0)
(0.715454 20.0004 0)
(0.715453 20.0004 0)
(0.715453 20.0004 0)
(0.715452 20.0004 0)
(0.715452 20.0004 0)
(0.715451 20.0004 0)
(0.715452 20.0004 0)
(0.715452 20.0004 0)
(0.715453 20.0004 0)
(0.715454 20.0004 0)
(0.715456 20.0004 0)
(0.715459 20.0004 0)
(0.715463 20.0004 0)
(0.71547 20.0003 0)
(0.715482 20.0003 0)
(0.715502 20.0003 0)
(0.715538 20.0002 0)
(0.715602 20.0001 0)
(0.715717 20 0)
(0.715928 19.9997 0)
(0.716318 19.9993 0)
(0.71707 19.9987 0)
(0.718459 19.9979 0)
(0.721132 19.997 0)
(0.725232 19.9961 0)
(0.731569 19.9954 0)
(0.468246 19.4465 0)
(0.487964 19.5377 0)
(0.536562 19.6414 0)
(0.572406 19.7308 0)
(0.595433 19.8009 0)
(0.609106 19.8543 0)
(0.617671 19.8947 0)
(0.623642 19.9249 0)
(0.628011 19.9473 0)
(0.631341 19.9636 0)
(0.633858 19.9753 0)
(0.635751 19.9836 0)
(0.637146 19.9893 0)
(0.638157 19.9932 0)
(0.638876 19.9958 0)
(0.639378 19.9975 0)
(0.639722 19.9986 0)
(0.639955 19.9993 0)
(0.640109 19.9997 0)
(0.640211 20 0)
(0.640277 20.0001 0)
(0.640319 20.0002 0)
(0.640346 20.0003 0)
(0.640363 20.0003 0)
(0.640374 20.0003 0)
(0.640381 20.0003 0)
(0.640385 20.0003 0)
(0.640388 20.0004 0)
(0.64039 20.0004 0)
(0.640391 20.0004 0)
(0.640392 20.0004 0)
(0.640392 20.0004 0)
(0.640392 20.0004 0)
(0.640392 20.0004 0)
(0.640392 20.0004 0)
(0.640392 20.0004 0)
(0.640392 20.0004 0)
(0.640392 20.0004 0)
(0.640393 20.0004 0)
(0.640393 20.0004 0)
(0.640393 20.0004 0)
(0.640393 20.0004 0)
(0.640393 20.0004 0)
(0.640394 20.0004 0)
(0.640394 20.0004 0)
(0.640394 20.0004 0)
(0.640394 20.0004 0)
(0.640394 20.0004 0)
(0.640394 20.0004 0)
(0.640394 20.0004 0)
(0.640394 20.0004 0)
(0.640394 20.0004 0)
(0.640394 20.0004 0)
(0.640393 20.0004 0)
(0.640393 20.0004 0)
(0.640393 20.0004 0)
(0.640393 20.0004 0)
(0.640392 20.0004 0)
(0.640392 20.0004 0)
(0.640392 20.0004 0)
(0.640392 20.0004 0)
(0.640392 20.0004 0)
(0.640392 20.0004 0)
(0.640392 20.0004 0)
(0.640393 20.0004 0)
(0.640393 20.0004 0)
(0.640393 20.0004 0)
(0.640394 20.0004 0)
(0.640394 20.0004 0)
(0.640395 20.0004 0)
(0.640395 20.0004 0)
(0.640395 20.0004 0)
(0.640395 20.0004 0)
(0.640394 20.0004 0)
(0.640394 20.0004 0)
(0.640393 20.0004 0)
(0.640393 20.0004 0)
(0.640392 20.0004 0)
(0.640392 20.0004 0)
(0.640391 20.0004 0)
(0.640391 20.0004 0)
(0.640392 20.0004 0)
(0.640393 20.0004 0)
(0.640394 20.0004 0)
(0.640396 20.0004 0)
(0.640399 20.0003 0)
(0.640403 20.0003 0)
(0.64041 20.0003 0)
(0.640421 20.0003 0)
(0.640441 20.0003 0)
(0.640476 20.0002 0)
(0.640539 20.0001 0)
(0.640653 19.9999 0)
(0.640863 19.9996 0)
(0.641252 19.9991 0)
(0.642006 19.9984 0)
(0.643393 19.9974 0)
(0.646058 19.996 0)
(0.650122 19.9943 0)
(0.656318 19.9929 0)
(0.410944 19.424 0)
(0.42713 19.5102 0)
(0.469473 19.6168 0)
(0.501761 19.7126 0)
(0.523041 19.7881 0)
(0.535787 19.8452 0)
(0.543832 19.8882 0)
(0.549433 19.9202 0)
(0.553533 19.9439 0)
(0.556654 19.9612 0)
(0.559016 19.9736 0)
(0.560792 19.9824 0)
(0.562103 19.9885 0)
(0.563055 19.9926 0)
(0.563732 19.9954 0)
(0.564206 19.9972 0)
(0.564531 19.9984 0)
(0.564752 19.9991 0)
(0.564899 19.9996 0)
(0.564995 19.9999 0)
(0.565058 20.0001 0)
(0.565098 20.0002 0)
(0.565124 20.0003 0)
(0.56514 20.0003 0)
(0.565151 20.0003 0)
(0.565157 20.0003 0)
(0.565161 20.0003 0)
(0.565164 20.0003 0)
(0.565166 20.0003 0)
(0.565167 20.0003 0)
(0.565168 20.0003 0)
(0.565168 20.0003 0)
(0.565168 20.0003 0)
(0.565168 20.0003 0)
(0.565168 20.0003 0)
(0.565168 20.0003 0)
(0.565168 20.0003 0)
(0.565168 20.0003 0)
(0.565168 20.0003 0)
(0.565169 20.0003 0)
(0.565169 20.0003 0)
(0.565169 20.0003 0)
(0.565169 20.0003 0)
(0.565169 20.0003 0)
(0.56517 20.0003 0)
(0.56517 20.0003 0)
(0.56517 20.0003 0)
(0.56517 20.0003 0)
(0.56517 20.0003 0)
(0.56517 20.0003 0)
(0.56517 20.0003 0)
(0.56517 20.0003 0)
(0.565169 20.0003 0)
(0.565169 20.0003 0)
(0.565169 20.0003 0)
(0.565169 20.0003 0)
(0.565168 20.0003 0)
(0.565168 20.0003 0)
(0.565168 20.0003 0)
(0.565168 20.0003 0)
(0.565168 20.0003 0)
(0.565168 20.0003 0)
(0.565168 20.0003 0)
(0.565168 20.0003 0)
(0.565168 20.0003 0)
(0.565169 20.0003 0)
(0.565169 20.0003 0)
(0.56517 20.0003 0)
(0.56517 20.0003 0)
(0.565171 20.0003 0)
(0.565171 20.0003 0)
(0.565171 20.0003 0)
(0.565171 20.0003 0)
(0.56517 20.0003 0)
(0.56517 20.0003 0)
(0.565169 20.0003 0)
(0.565168 20.0003 0)
(0.565168 20.0003 0)
(0.565167 20.0003 0)
(0.565167 20.0003 0)
(0.565167 20.0003 0)
(0.565168 20.0003 0)
(0.565169 20.0003 0)
(0.56517 20.0003 0)
(0.565172 20.0003 0)
(0.565174 20.0003 0)
(0.565178 20.0003 0)
(0.565185 20.0003 0)
(0.565196 20.0003 0)
(0.565215 20.0002 0)
(0.565248 20.0002 0)
(0.565309 20.0001 0)
(0.565418 19.9999 0)
(0.565621 19.9995 0)
(0.565999 19.999 0)
(0.56673 19.9981 0)
(0.568074 19.9968 0)
(0.570648 19.9949 0)
(0.574549 19.9925 0)
(0.580412 19.9906 0)
(0.354585 19.4052 0)
(0.367759 19.4866 0)
(0.403939 19.5953 0)
(0.432346 19.6964 0)
(0.451483 19.7766 0)
(0.463042 19.8371 0)
(0.470386 19.8824 0)
(0.475496 19.916 0)
(0.479237 19.9409 0)
(0.482083 19.959 0)
(0.484237 19.9721 0)
(0.485858 19.9813 0)
(0.487055 19.9877 0)
(0.487925 19.9921 0)
(0.488545 19.995 0)
(0.488979 19.997 0)
(0.489279 19.9982 0)
(0.489481 19.999 0)
(0.489617 19.9995 0)
(0.489706 19.9999 0)
(0.489764 20 0)
(0.489801 20.0002 0)
(0.489825 20.0002 0)
(0.48984 20.0003 0)
(0.489849 20.0003 0)
(0.489855 20.0003 0)
(0.489859 20.0003 0)
(0.489862 20.0003 0)
(0.489863 20.0003 0)
(0.489865 20.0003 0)
(0.489865 20.0003 0)
(0.489866 20.0003 0)
(0.489866 20.0003 0)
(0.489866 20.0003 0)
(0.489866 20.0003 0)
(0.489866 20.0003 0)
(0.489866 20.0003 0)
(0.489866 20.0003 0)
(0.489866 20.0003 0)
(0.489866 20.0003 0)
(0.489866 20.0003 0)
(0.489866 20.0003 0)
(0.489867 20.0003 0)
(0.489867 20.0003 0)
(0.489867 20.0003 0)
(0.489867 20.0003 0)
(0.489867 20.0003 0)
(0.489867 20.0003 0)
(0.489867 20.0003 0)
(0.489867 20.0003 0)
(0.489867 20.0003 0)
(0.489867 20.0003 0)
(0.489867 20.0003 0)
(0.489867 20.0003 0)
(0.489866 20.0003 0)
(0.489866 20.0003 0)
(0.489866 20.0003 0)
(0.489866 20.0003 0)
(0.489865 20.0003 0)
(0.489865 20.0003 0)
(0.489865 20.0003 0)
(0.489865 20.0003 0)
(0.489865 20.0003 0)
(0.489866 20.0003 0)
(0.489866 20.0003 0)
(0.489866 20.0003 0)
(0.489867 20.0003 0)
(0.489867 20.0003 0)
(0.489868 20.0003 0)
(0.489868 20.0003 0)
(0.489868 20.0003 0)
(0.489868 20.0003 0)
(0.489868 20.0003 0)
(0.489868 20.0003 0)
(0.489867 20.0003 0)
(0.489867 20.0003 0)
(0.489866 20.0003 0)
(0.489865 20.0003 0)
(0.489865 20.0003 0)
(0.489864 20.0003 0)
(0.489865 20.0003 0)
(0.489865 20.0003 0)
(0.489866 20.0003 0)
(0.489867 20.0003 0)
(0.489869 20.0003 0)
(0.489872 20.0003 0)
(0.489875 20.0003 0)
(0.489881 20.0003 0)
(0.489891 20.0003 0)
(0.489909 20.0002 0)
(0.48994 20.0002 0)
(0.489996 20 0)
(0.490098 19.9998 0)
(0.490288 19.9994 0)
(0.490643 19.9988 0)
(0.49133 19.9979 0)
(0.492589 19.9963 0)
(0.494994 19.9939 0)
(0.498617 19.9908 0)
(0.503988 19.9883 0)
(0.298966 19.3897 0)
(0.309535 19.4668 0)
(0.339713 19.5768 0)
(0.364014 19.6824 0)
(0.380687 19.7666 0)
(0.390834 19.8301 0)
(0.39732 19.8773 0)
(0.40183 19.9123 0)
(0.405134 19.9382 0)
(0.407644 19.9571 0)
(0.409545 19.9707 0)
(0.410976 19.9804 0)
(0.412034 19.9871 0)
(0.412803 19.9917 0)
(0.413352 19.9947 0)
(0.413738 19.9968 0)
(0.414003 19.9981 0)
(0.414183 19.9989 0)
(0.414304 19.9995 0)
(0.414383 19.9998 0)
(0.414435 20 0)
(0.414468 20.0001 0)
(0.414489 20.0002 0)
(0.414503 20.0003 0)
(0.414511 20.0003 0)
(0.414517 20.0003 0)
(0.41452 20.0003 0)
(0.414522 20.0003 0)
(0.414524 20.0003 0)
(0.414525 20.0003 0)
(0.414525 20.0003 0)
(0.414526 20.0003 0)
(0.414526 20.0003 0)
(0.414526 20.0003 0)
(0.414526 20.0003 0)
(0.414526 20.0003 0)
(0.414526 20.0003 0)
(0.414526 20.0003 0)
(0.414526 20.0003 0)
(0.414526 20.0003 0)
(0.414526 20.0003 0)
(0.414526 20.0003 0)