/*--------------------------------*- C++ -*----------------------------------*\
| =========                 |                                                 |
| \\      /  F ield         | OpenFOAM: The Open Source CFD Toolbox           |
|  \\    /   O peration     | Version:  v1906                                 |
|   \\  /    A nd           | Web:      www.OpenFOAM.com                      |
|    \\/     M anipulation  |                                                 |
\*---------------------------------------------------------------------------*/
FoamFile
{
    version     2.0;
    format      ascii;
    class       volVectorField;
    location    "0.5";
    object      B;
}
// * * * * * * * * * * * * * * * * * * * * * * * * * * * * * * * * * * * * * //

dimensions      [1 0 -2 0 0 -1 0];


internalField   nonuniform List<vector> 
4000
(
(0.473626 20.0331 0)
(0.499867 19.9978 0)
(0.486536 19.9918 0)
(0.492197 19.9923 0)
(0.491909 19.9938 0)
(0.493179 19.9955 0)
(0.493229 19.9968 0)
(0.493481 19.9978 0)
(0.493513 19.9985 0)
(0.493573 19.999 0)
(0.493584 19.9993 0)
(0.493591 19.9996 0)
(0.493585 19.9997 0)
(0.493575 19.9998 0)
(0.493563 19.9999 0)
(0.493551 19.9999 0)
(0.49354 20 0)
(0.493532 20 0)
(0.493525 20 0)
(0.493519 20 0)
(0.493515 20 0)
(0.493512 20 0)
(0.49351 20 0)
(0.493509 20 0)
(0.493508 20 0)
(0.493507 20 0)
(0.493507 20 0)
(0.493506 20 0)
(0.493506 20 0)
(0.493506 20 0)
(0.493506 20 0)
(0.493506 20 0)
(0.493506 20 0)
(0.493506 20 0)
(0.493506 20 0)
(0.493506 20 0)
(0.493506 20 0)
(0.493506 20 0)
(0.493506 20 0)
(0.493506 20 0)
(0.493506 20 0)
(0.493506 20 0)
(0.493506 20 0)
(0.493506 20 0)
(0.493506 20 0)
(0.493506 20 0)
(0.493506 20 0)
(0.493506 20 0)
(0.493506 20 0)
(0.493506 20 0)
(0.493506 20 0)
(0.493506 20 0)
(0.493506 20 0)
(0.493506 20 0)
(0.493506 20 0)
(0.493506 20 0)
(0.493506 20 0)
(0.493506 20 0)
(0.493506 20 0)
(0.493506 20 0)
(0.493506 20 0)
(0.493506 20 0)
(0.493506 20 0)
(0.493506 20 0)
(0.493506 20 0)
(0.493506 20 0)
(0.493506 20 0)
(0.493506 20 0)
(0.493506 20 0)
(0.493506 20 0)
(0.493506 20 0)
(0.493506 20 0)
(0.493506 20 0)
(0.493506 20 0)
(0.493506 20 0)
(0.493506 20 0)
(0.493506 20 0)
(0.493506 20 0)
(0.493506 20 0)
(0.493506 20 0)
(0.493506 20 0)
(0.493506 20 0)
(0.493506 20 0)
(0.493506 20 0)
(0.493506 20 0)
(0.493505 20 0)
(0.493505 20 0)
(0.493505 20 0)
(0.493505 20 0)
(0.493505 20 0)
(0.493505 20 0)
(0.493506 20 0)
(0.493508 20 0)
(0.493513 20 0)
(0.493524 20 0)
(0.493544 20 0)
(0.493586 20 0)
(0.493591 20.0001 0)
(0.493547 20.0004 0)
(0.492784 20.0007 0)
(0.720693 20.0089 0)
(0.770412 19.9816 0)
(0.769047 19.9754 0)
(0.779955 19.9779 0)
(0.781269 19.9826 0)
(0.78403 19.9876 0)
(0.784917 19.9915 0)
(0.785904 19.9944 0)
(0.786455 19.9965 0)
(0.786929 19.998 0)
(0.787242 19.9991 0)
(0.787474 19.9998 0)
(0.787628 20.0003 0)
(0.787731 20.0006 0)
(0.787795 20.0009 0)
(0.787835 20.001 0)
(0.787858 20.0011 0)
(0.78787 20.0011 0)
(0.787876 20.0011 0)
(0.787879 20.0011 0)
(0.78788 20.0012 0)
(0.78788 20.0012 0)
(0.78788 20.0012 0)
(0.787879 20.0012 0)
(0.787879 20.0012 0)
(0.787879 20.0012 0)
(0.787878 20.0012 0)
(0.787878 20.0012 0)
(0.787878 20.0012 0)
(0.787878 20.0012 0)
(0.787878 20.0012 0)
(0.787878 20.0012 0)
(0.787878 20.0012 0)
(0.787878 20.0012 0)
(0.787878 20.0012 0)
(0.787878 20.0012 0)
(0.787878 20.0012 0)
(0.787878 20.0012 0)
(0.787878 20.0012 0)
(0.787878 20.0012 0)
(0.787878 20.0012 0)
(0.787878 20.0012 0)
(0.787878 20.0012 0)
(0.787878 20.0012 0)
(0.787878 20.0012 0)
(0.787878 20.0012 0)
(0.787878 20.0012 0)
(0.787878 20.0012 0)
(0.787878 20.0012 0)
(0.787878 20.0012 0)
(0.787878 20.0012 0)
(0.787878 20.0012 0)
(0.787878 20.0012 0)
(0.787878 20.0012 0)
(0.787878 20.0012 0)
(0.787878 20.0012 0)
(0.787878 20.0012 0)
(0.787878 20.0012 0)
(0.787878 20.0012 0)
(0.787878 20.0012 0)
(0.787878 20.0012 0)
(0.787878 20.0012 0)
(0.787878 20.0012 0)
(0.787878 20.0012 0)
(0.787878 20.0012 0)
(0.787878 20.0012 0)
(0.787878 20.0012 0)
(0.787878 20.0012 0)
(0.787878 20.0012 0)
(0.787878 20.0012 0)
(0.787878 20.0012 0)
(0.787878 20.0012 0)
(0.787878 20.0012 0)
(0.787878 20.0012 0)
(0.787878 20.0012 0)
(0.787878 20.0012 0)
(0.787878 20.0012 0)
(0.787878 20.0012 0)
(0.787878 20.0012 0)
(0.787878 20.0012 0)
(0.787878 20.0012 0)
(0.787878 20.0012 0)
(0.787878 20.0012 0)
(0.787878 20.0012 0)
(0.787878 20.0012 0)
(0.787878 20.0012 0)
(0.787878 20.0012 0)
(0.787879 20.0012 0)
(0.78788 20.0012 0)
(0.787882 20.0012 0)
(0.787886 20.0011 0)
(0.787894 20.0011 0)
(0.787908 20.0011 0)
(0.787932 20.0011 0)
(0.787975 20.0011 0)
(0.788048 20.0011 0)
(0.788178 20.0012 0)
(0.788322 20.0015 0)
(0.788444 20.0023 0)
(0.78739 20.0033 0)
(0.755213 19.9459 0)
(0.80817 19.954 0)
(0.821524 19.9558 0)
(0.836176 19.9619 0)
(0.839609 19.9702 0)
(0.843547 19.9785 0)
(0.845369 19.9849 0)
(0.847087 19.9897 0)
(0.848227 19.9932 0)
(0.849159 19.9958 0)
(0.849825 19.9975 0)
(0.850323 19.9988 0)
(0.850672 19.9996 0)
(0.850916 20.0002 0)
(0.851081 20.0005 0)
(0.85119 20.0008 0)
(0.85126 20.0009 0)
(0.851304 20.001 0)
(0.851331 20.001 0)
(0.851347 20.0011 0)
(0.851357 20.0011 0)
(0.851362 20.0011 0)
(0.851366 20.0011 0)
(0.851368 20.0011 0)
(0.851369 20.0011 0)
(0.851369 20.0011 0)
(0.851369 20.0011 0)
(0.851369 20.0011 0)
(0.85137 20.0011 0)
(0.85137 20.0011 0)
(0.85137 20.0011 0)
(0.85137 20.0011 0)
(0.85137 20.0011 0)
(0.85137 20.0011 0)
(0.85137 20.0011 0)
(0.85137 20.0011 0)
(0.85137 20.0011 0)
(0.85137 20.0011 0)
(0.85137 20.0011 0)
(0.85137 20.0011 0)
(0.85137 20.0011 0)
(0.85137 20.0011 0)
(0.85137 20.0011 0)
(0.85137 20.0011 0)
(0.85137 20.0011 0)
(0.85137 20.0011 0)
(0.85137 20.0011 0)
(0.85137 20.0011 0)
(0.85137 20.0011 0)
(0.85137 20.0011 0)
(0.85137 20.0011 0)
(0.85137 20.0011 0)
(0.85137 20.0011 0)
(0.85137 20.0011 0)
(0.85137 20.0011 0)
(0.85137 20.0011 0)
(0.85137 20.0011 0)
(0.85137 20.0011 0)
(0.85137 20.0011 0)
(0.85137 20.0011 0)
(0.85137 20.0011 0)
(0.85137 20.0011 0)
(0.85137 20.0011 0)
(0.85137 20.0011 0)
(0.85137 20.0011 0)
(0.85137 20.0011 0)
(0.85137 20.0011 0)
(0.85137 20.0011 0)
(0.85137 20.0011 0)
(0.85137 20.0011 0)
(0.85137 20.0011 0)
(0.85137 20.0011 0)
(0.85137 20.0011 0)
(0.85137 20.0011 0)
(0.85137 20.0011 0)
(0.85137 20.0011 0)
(0.85137 20.0011 0)
(0.85137 20.0011 0)
(0.85137 20.0011 0)
(0.85137 20.0011 0)
(0.85137 20.0011 0)
(0.85137 20.0011 0)
(0.85137 20.0011 0)
(0.85137 20.0011 0)
(0.85137 20.0011 0)
(0.851371 20.0011 0)
(0.851371 20.0011 0)
(0.851373 20.0011 0)
(0.851376 20.0011 0)
(0.851381 20.0011 0)
(0.85139 20.0011 0)
(0.851406 20.001 0)
(0.851433 20.001 0)
(0.851479 20.001 0)
(0.851559 20.0009 0)
(0.851693 20.0009 0)
(0.851928 20.001 0)
(0.852285 20.0015 0)
(0.852765 20.0027 0)
(0.852447 20.0044 0)
(0.726927 19.884 0)
(0.774965 19.921 0)
(0.798457 19.9341 0)
(0.815933 19.9454 0)
(0.821451 19.9578 0)
(0.826405 19.9691 0)
(0.82909 19.978 0)
(0.83146 19.9847 0)
(0.833139 19.9896 0)
(0.834491 19.9932 0)
(0.835485 19.9957 0)
(0.836231 19.9974 0)
(0.836766 19.9986 0)
(0.837145 19.9994 0)
(0.837406 19.9999 0)
(0.837583 20.0003 0)
(0.8377 20.0005 0)
(0.837775 20.0006 0)
(0.837823 20.0007 0)
(0.837854 20.0007 0)
(0.837872 20.0007 0)
(0.837884 20.0007 0)
(0.837891 20.0007 0)
(0.837895 20.0007 0)
(0.837898 20.0007 0)
(0.837899 20.0007 0)
(0.8379 20.0007 0)
(0.837901 20.0007 0)
(0.837901 20.0007 0)
(0.837901 20.0007 0)
(0.837901 20.0007 0)
(0.837901 20.0007 0)
(0.837902 20.0007 0)
(0.837902 20.0007 0)
(0.837902 20.0007 0)
(0.837902 20.0007 0)
(0.837902 20.0007 0)
(0.837902 20.0007 0)
(0.837902 20.0007 0)
(0.837902 20.0007 0)
(0.837902 20.0007 0)
(0.837902 20.0007 0)
(0.837902 20.0007 0)
(0.837902 20.0007 0)
(0.837902 20.0007 0)
(0.837902 20.0007 0)
(0.837902 20.0007 0)
(0.837902 20.0007 0)
(0.837902 20.0007 0)
(0.837902 20.0007 0)
(0.837902 20.0007 0)
(0.837902 20.0007 0)
(0.837902 20.0007 0)
(0.837902 20.0007 0)
(0.837902 20.0007 0)
(0.837902 20.0007 0)
(0.837902 20.0007 0)
(0.837902 20.0007 0)
(0.837902 20.0007 0)
(0.837902 20.0007 0)
(0.837902 20.0007 0)
(0.837902 20.0007 0)
(0.837902 20.0007 0)
(0.837902 20.0007 0)
(0.837902 20.0007 0)
(0.837902 20.0007 0)
(0.837902 20.0007 0)
(0.837902 20.0007 0)
(0.837902 20.0007 0)
(0.837902 20.0007 0)
(0.837902 20.0007 0)
(0.837902 20.0007 0)
(0.837902 20.0007 0)
(0.837902 20.0007 0)
(0.837902 20.0007 0)
(0.837902 20.0007 0)
(0.837902 20.0007 0)
(0.837902 20.0007 0)
(0.837902 20.0007 0)
(0.837902 20.0007 0)
(0.837902 20.0007 0)
(0.837902 20.0007 0)
(0.837902 20.0007 0)
(0.837902 20.0007 0)
(0.837903 20.0007 0)
(0.837903 20.0007 0)
(0.837905 20.0007 0)
(0.837908 20.0007 0)
(0.837912 20.0007 0)
(0.83792 20.0007 0)
(0.837934 20.0007 0)
(0.837958 20.0007 0)
(0.837998 20.0006 0)
(0.838067 20.0006 0)
(0.838183 20.0005 0)
(0.838384 20.0005 0)
(0.838737 20.0006 0)
(0.839347 20.0011 0)
(0.840284 20.0026 0)
(0.841142 20.0045 0)
(0.681494 19.8322 0)
(0.722375 19.8868 0)
(0.751569 19.9116 0)
(0.770996 19.9289 0)
(0.778331 19.9456 0)
(0.784149 19.96 0)
(0.787574 19.9714 0)
(0.790491 19.9799 0)
(0.792626 19.9862 0)
(0.794335 19.9908 0)
(0.795608 19.994 0)
(0.796567 19.9963 0)
(0.79726 19.9978 0)
(0.797757 19.9988 0)
(0.798102 19.9995 0)
(0.798337 20 0)
(0.798495 20.0002 0)
(0.798599 20.0004 0)
(0.798666 20.0005 0)
(0.798709 20.0005 0)
(0.798736 20.0006 0)
(0.798753 20.0006 0)
(0.798763 20.0006 0)
(0.79877 20.0006 0)
(0.798774 20.0006 0)
(0.798776 20.0006 0)
(0.798778 20.0006 0)
(0.798779 20.0006 0)
(0.798779 20.0006 0)
(0.79878 20.0006 0)
(0.79878 20.0006 0)
(0.79878 20.0006 0)
(0.79878 20.0006 0)
(0.79878 20.0006 0)
(0.79878 20.0006 0)
(0.79878 20.0006 0)
(0.79878 20.0006 0)
(0.79878 20.0006 0)
(0.79878 20.0006 0)
(0.79878 20.0006 0)
(0.79878 20.0006 0)
(0.79878 20.0006 0)
(0.79878 20.0006 0)
(0.79878 20.0006 0)
(0.79878 20.0006 0)
(0.79878 20.0006 0)
(0.79878 20.0006 0)
(0.79878 20.0006 0)
(0.79878 20.0006 0)
(0.79878 20.0006 0)
(0.79878 20.0006 0)
(0.79878 20.0006 0)
(0.79878 20.0006 0)
(0.79878 20.0006 0)
(0.79878 20.0006 0)
(0.79878 20.0006 0)
(0.79878 20.0006 0)
(0.79878 20.0006 0)
(0.79878 20.0006 0)
(0.79878 20.0006 0)
(0.79878 20.0006 0)
(0.79878 20.0006 0)
(0.79878 20.0006 0)
(0.79878 20.0006 0)
(0.79878 20.0006 0)
(0.79878 20.0006 0)
(0.79878 20.0006 0)
(0.79878 20.0006 0)
(0.79878 20.0006 0)
(0.79878 20.0006 0)
(0.79878 20.0006 0)
(0.79878 20.0006 0)
(0.79878 20.0006 0)
(0.79878 20.0006 0)
(0.79878 20.0006 0)
(0.79878 20.0006 0)
(0.79878 20.0006 0)
(0.79878 20.0006 0)
(0.79878 20.0006 0)
(0.79878 20.0006 0)
(0.798781 20.0006 0)
(0.798781 20.0006 0)
(0.798781 20.0006 0)
(0.798781 20.0006 0)
(0.798782 20.0006 0)
(0.798783 20.0006 0)
(0.798785 20.0006 0)
(0.798789 20.0006 0)
(0.798795 20.0006 0)
(0.798805 20.0006 0)
(0.798823 20.0006 0)
(0.798854 20.0005 0)
(0.798907 20.0005 0)
(0.798997 20.0004 0)
(0.79915 20.0003 0)
(0.799419 20.0003 0)
(0.799896 20.0003 0)
(0.800769 20.0008 0)
(0.802182 20.0023 0)
(0.804197 20.0042 0)
(0.632606 19.789 0)
(0.666433 19.8534 0)
(0.698107 19.8888 0)
(0.718658 19.9127 0)
(0.72744 19.9338 0)
(0.733952 19.9513 0)
(0.737977 19.965 0)
(0.74133 19.9753 0)
(0.743829 19.9829 0)
(0.745821 19.9885 0)
(0.747319 19.9924 0)
(0.748449 19.9952 0)
(0.749272 19.9971 0)
(0.749862 19.9984 0)
(0.750276 19.9992 0)
(0.750561 19.9997 0)
(0.750752 20.0001 0)
(0.75088 20.0003 0)
(0.750963 20.0004 0)
(0.751016 20.0005 0)
(0.75105 20.0005 0)
(0.751072 20.0005 0)
(0.751086 20.0005 0)
(0.751094 20.0005 0)
(0.751099 20.0005 0)
(0.751102 20.0006 0)
(0.751104 20.0006 0)
(0.751106 20.0006 0)
(0.751107 20.0006 0)
(0.751107 20.0006 0)
(0.751107 20.0006 0)
(0.751108 20.0006 0)
(0.751108 20.0006 0)
(0.751108 20.0006 0)
(0.751108 20.0006 0)
(0.751108 20.0006 0)
(0.751108 20.0006 0)
(0.751108 20.0006 0)
(0.751108 20.0006 0)
(0.751108 20.0006 0)
(0.751108 20.0006 0)
(0.751108 20.0006 0)
(0.751108 20.0006 0)
(0.751108 20.0006 0)
(0.751108 20.0006 0)
(0.751108 20.0006 0)
(0.751108 20.0006 0)
(0.751108 20.0006 0)
(0.751108 20.0006 0)
(0.751108 20.0006 0)
(0.751108 20.0006 0)
(0.751108 20.0006 0)
(0.751108 20.0006 0)
(0.751108 20.0006 0)
(0.751108 20.0006 0)
(0.751108 20.0006 0)
(0.751108 20.0006 0)
(0.751108 20.0006 0)
(0.751108 20.0006 0)
(0.751108 20.0006 0)
(0.751108 20.0006 0)
(0.751108 20.0006 0)
(0.751108 20.0006 0)
(0.751108 20.0006 0)
(0.751108 20.0006 0)
(0.751108 20.0006 0)
(0.751108 20.0006 0)
(0.751108 20.0006 0)
(0.751108 20.0006 0)
(0.751108 20.0006 0)
(0.751108 20.0006 0)
(0.751108 20.0006 0)
(0.751108 20.0006 0)
(0.751108 20.0006 0)
(0.751108 20.0006 0)
(0.751108 20.0006 0)
(0.751108 20.0006 0)
(0.751108 20.0006 0)
(0.751108 20.0006 0)
(0.751108 20.0006 0)
(0.751108 20.0006 0)
(0.751108 20.0006 0)
(0.751109 20.0006 0)
(0.751109 20.0006 0)
(0.75111 20.0006 0)
(0.751111 20.0005 0)
(0.751114 20.0005 0)
(0.751118 20.0005 0)
(0.751126 20.0005 0)
(0.751138 20.0005 0)
(0.75116 20.0005 0)
(0.751198 20.0005 0)
(0.751261 20.0004 0)
(0.75137 20.0003 0)
(0.751558 20.0002 0)
(0.751893 20.0001 0)
(0.752492 20.0001 0)
(0.753619 20.0005 0)
(0.755468 20.0018 0)
(0.758433 20.0035 0)
(0.584116 19.7526 0)
(0.61176 19.8217 0)
(0.643744 19.8663 0)
(0.664684 19.8968 0)
(0.674508 19.9223 0)
(0.681525 19.9428 0)
(0.686007 19.9587 0)
(0.689683 19.9708 0)
(0.692454 19.9797 0)
(0.694658 19.9862 0)
(0.696324 19.9908 0)
(0.697583 19.9941 0)
(0.698503 19.9964 0)
(0.699166 19.9979 0)
(0.699633 19.9989 0)
(0.699955 19.9995 0)
(0.700173 19.9999 0)
(0.700319 20.0002 0)
(0.700415 20.0003 0)
(0.700477 20.0004 0)
(0.700517 20.0005 0)
(0.700542 20.0005 0)
(0.700558 20.0005 0)
(0.700568 20.0005 0)
(0.700575 20.0005 0)
(0.700579 20.0005 0)
(0.700581 20.0005 0)
(0.700583 20.0005 0)
(0.700584 20.0005 0)
(0.700584 20.0005 0)
(0.700585 20.0005 0)
(0.700585 20.0005 0)
(0.700585 20.0005 0)
(0.700585 20.0005 0)
(0.700585 20.0005 0)
(0.700585 20.0005 0)
(0.700585 20.0005 0)
(0.700585 20.0005 0)
(0.700585 20.0005 0)
(0.700585 20.0005 0)
(0.700585 20.0005 0)
(0.700585 20.0005 0)
(0.700585 20.0005 0)
(0.700585 20.0005 0)
(0.700585 20.0005 0)
(0.700585 20.0005 0)
(0.700585 20.0005 0)
(0.700585 20.0005 0)
(0.700585 20.0005 0)
(0.700585 20.0005 0)
(0.700585 20.0005 0)
(0.700585 20.0005 0)
(0.700585 20.0005 0)
(0.700585 20.0005 0)
(0.700585 20.0005 0)
(0.700585 20.0005 0)
(0.700585 20.0005 0)
(0.700585 20.0005 0)
(0.700585 20.0005 0)
(0.700585 20.0005 0)
(0.700585 20.0005 0)
(0.700585 20.0005 0)
(0.700585 20.0005 0)
(0.700585 20.0005 0)
(0.700585 20.0005 0)
(0.700585 20.0005 0)
(0.700585 20.0005 0)
(0.700585 20.0005 0)
(0.700585 20.0005 0)
(0.700585 20.0005 0)
(0.700585 20.0005 0)
(0.700586 20.0005 0)
(0.700586 20.0005 0)
(0.700586 20.0005 0)
(0.700585 20.0005 0)
(0.700585 20.0005 0)
(0.700585 20.0005 0)
(0.700585 20.0005 0)
(0.700586 20.0005 0)
(0.700586 20.0005 0)
(0.700586 20.0005 0)
(0.700586 20.0005 0)
(0.700586 20.0005 0)
(0.700587 20.0005 0)
(0.700588 20.0005 0)
(0.700589 20.0005 0)
(0.700592 20.0005 0)
(0.700597 20.0005 0)
(0.700606 20.0005 0)
(0.70062 20.0005 0)
(0.700645 20.0005 0)
(0.700688 20.0004 0)
(0.700761 20.0003 0)
(0.700887 20.0002 0)
(0.701105 20.0001 0)
(0.701502 19.9999 0)
(0.702211 19.9998 0)
(0.703566 20.0001 0)
(0.705785 20.0011 0)
(0.709453 20.0024 0)
(0.536871 19.7217 0)
(0.559345 19.7923 0)
(0.590252 19.8445 0)
(0.610964 19.8815 0)
(0.621432 19.9112 0)
(0.62876 19.9346 0)
(0.633553 19.9527 0)
(0.637442 19.9664 0)
(0.640395 19.9766 0)
(0.642741 19.984 0)
(0.644521 19.9893 0)
(0.645867 19.993 0)
(0.646855 19.9956 0)
(0.647568 19.9974 0)
(0.648072 19.9985 0)
(0.648421 19.9993 0)
(0.648659 19.9998 0)
(0.648818 20.0001 0)
(0.648923 20.0003 0)
(0.648991 20.0004 0)
(0.649036 20.0004 0)
(0.649064 20.0005 0)
(0.649082 20.0005 0)
(0.649093 20.0005 0)
(0.6491 20.0005 0)
(0.649105 20.0005 0)
(0.649108 20.0005 0)
(0.649109 20.0005 0)
(0.64911 20.0005 0)
(0.649111 20.0005 0)
(0.649112 20.0005 0)
(0.649112 20.0005 0)
(0.649112 20.0005 0)
(0.649112 20.0005 0)
(0.649112 20.0005 0)
(0.649113 20.0005 0)
(0.649113 20.0005 0)
(0.649113 20.0005 0)
(0.649113 20.0005 0)
(0.649113 20.0005 0)
(0.649113 20.0005 0)
(0.649113 20.0005 0)
(0.649113 20.0005 0)
(0.649113 20.0005 0)
(0.649113 20.0005 0)
(0.649113 20.0005 0)
(0.649113 20.0005 0)
(0.649113 20.0005 0)
(0.649113 20.0005 0)
(0.649113 20.0005 0)
(0.649113 20.0005 0)
(0.649113 20.0005 0)
(0.649113 20.0005 0)
(0.649113 20.0005 0)
(0.649113 20.0005 0)
(0.649113 20.0005 0)
(0.649113 20.0005 0)
(0.649113 20.0005 0)
(0.649113 20.0005 0)
(0.649113 20.0005 0)
(0.649113 20.0005 0)
(0.649113 20.0005 0)
(0.649113 20.0005 0)
(0.649113 20.0005 0)
(0.649113 20.0005 0)
(0.649113 20.0005 0)
(0.649113 20.0005 0)
(0.649113 20.0005 0)
(0.649113 20.0005 0)
(0.649113 20.0005 0)
(0.649113 20.0005 0)
(0.649113 20.0005 0)
(0.649113 20.0005 0)
(0.649113 20.0005 0)
(0.649113 20.0005 0)
(0.649113 20.0005 0)
(0.649113 20.0005 0)
(0.649113 20.0005 0)
(0.649113 20.0005 0)
(0.649113 20.0005 0)
(0.649113 20.0005 0)
(0.649113 20.0005 0)
(0.649113 20.0005 0)
(0.649114 20.0005 0)
(0.649115 20.0005 0)
(0.649117 20.0005 0)
(0.64912 20.0005 0)
(0.649126 20.0005 0)
(0.649135 20.0005 0)
(0.649151 20.0005 0)
(0.649178 20.0004 0)
(0.649225 20.0004 0)
(0.649305 20.0003 0)
(0.649446 20.0002 0)
(0.649691 20 0)
(0.650139 19.9997 0)
(0.650944 19.9995 0)
(0.652488 19.9995 0)
(0.654992 20.0001 0)
(0.659132 20.0009 0)
(0.49086 19.6954 0)
(0.509095 19.7655 0)
(0.538084 19.8239 0)
(0.558077 19.8668 0)
(0.568819 19.9006 0)
(0.576267 19.9268 0)
(0.581231 19.947 0)
(0.585227 19.9622 0)
(0.588277 19.9735 0)
(0.590696 19.9818 0)
(0.592538 19.9878 0)
(0.593933 19.992 0)
(0.594959 19.9949 0)
(0.595701 19.9969 0)
(0.596226 19.9982 0)
(0.596592 19.9991 0)
(0.596841 19.9996 0)
(0.597009 20 0)
(0.59712 20.0002 0)
(0.597193 20.0003 0)
(0.59724 20.0004 0)
(0.59727 20.0004 0)
(0.59729 20.0005 0)
(0.597302 20.0005 0)
(0.59731 20.0005 0)
(0.597315 20.0005 0)
(0.597318 20.0005 0)
(0.59732 20.0005 0)
(0.597321 20.0005 0)
(0.597322 20.0005 0)
(0.597322 20.0005 0)
(0.597322 20.0005 0)
(0.597323 20.0005 0)
(0.597323 20.0005 0)
(0.597323 20.0005 0)
(0.597323 20.0005 0)
(0.597323 20.0005 0)
(0.597323 20.0005 0)
(0.597323 20.0005 0)
(0.597323 20.0005 0)
(0.597323 20.0005 0)
(0.597323 20.0005 0)
(0.597323 20.0005 0)
(0.597323 20.0005 0)
(0.597323 20.0005 0)
(0.597323 20.0005 0)
(0.597323 20.0005 0)
(0.597323 20.0005 0)
(0.597323 20.0005 0)
(0.597323 20.0005 0)
(0.597323 20.0005 0)
(0.597323 20.0005 0)
(0.597323 20.0005 0)
(0.597323 20.0005 0)
(0.597323 20.0005 0)
(0.597323 20.0005 0)
(0.597323 20.0005 0)
(0.597323 20.0005 0)
(0.597323 20.0005 0)
(0.597323 20.0005 0)
(0.597323 20.0005 0)
(0.597323 20.0005 0)
(0.597323 20.0005 0)
(0.597323 20.0005 0)
(0.597323 20.0005 0)
(0.597323 20.0005 0)
(0.597323 20.0005 0)
(0.597323 20.0005 0)
(0.597323 20.0005 0)
(0.597323 20.0005 0)
(0.597323 20.0005 0)
(0.597323 20.0005 0)
(0.597323 20.0005 0)
(0.597323 20.0005 0)
(0.597323 20.0005 0)
(0.597323 20.0005 0)
(0.597323 20.0005 0)
(0.597323 20.0005 0)
(0.597323 20.0005 0)
(0.597323 20.0005 0)
(0.597323 20.0005 0)
(0.597324 20.0005 0)
(0.597324 20.0005 0)
(0.597325 20.0005 0)
(0.597326 20.0005 0)
(0.597328 20.0005 0)
(0.597331 20.0005 0)
(0.597337 20.0005 0)
(0.597347 20.0005 0)
(0.597364 20.0004 0)
(0.597393 20.0004 0)
(0.597443 20.0003 0)
(0.597528 20.0002 0)
(0.597679 20.0001 0)
(0.597945 19.9998 0)
(0.598435 19.9995 0)
(0.599314 19.9992 0)
(0.600999 19.9989 0)
(0.603699 19.999 0)
(0.608106 19.9993 0)
(0.445875 19.673 0)
(0.460659 19.7414 0)
(0.487255 19.8047 0)
(0.506155 19.8529 0)
(0.516842 19.8906 0)
(0.524227 19.9194 0)
(0.529226 19.9415 0)
(0.533229 19.9582 0)
(0.536296 19.9707 0)
(0.538727 19.9798 0)
(0.540581 19.9864 0)
(0.541987 19.991 0)
(0.543023 19.9942 0)
(0.543775 19.9964 0)
(0.544307 19.9979 0)
(0.544678 19.9989 0)
(0.544933 19.9995 0)
(0.545104 19.9999 0)
(0.545218 20.0001 0)
(0.545293 20.0003 0)
(0.545342 20.0003 0)
(0.545373 20.0004 0)
(0.545393 20.0004 0)
(0.545406 20.0005 0)
(0.545414 20.0005 0)
(0.545419 20.0005 0)
(0.545422 20.0005 0)
(0.545424 20.0005 0)
(0.545426 20.0005 0)
(0.545426 20.0005 0)
(0.545427 20.0005 0)
(0.545427 20.0005 0)
(0.545428 20.0005 0)
(0.545428 20.0005 0)
(0.545428 20.0005 0)
(0.545428 20.0005 0)
(0.545428 20.0005 0)
(0.545428 20.0005 0)
(0.545428 20.0005 0)
(0.545428 20.0005 0)
(0.545428 20.0005 0)
(0.545428 20.0005 0)
(0.545428 20.0005 0)
(0.545428 20.0005 0)
(0.545428 20.0005 0)
(0.545428 20.0005 0)
(0.545428 20.0005 0)
(0.545428 20.0005 0)
(0.545428 20.0005 0)
(0.545428 20.0005 0)
(0.545428 20.0005 0)
(0.545428 20.0005 0)
(0.545428 20.0005 0)
(0.545428 20.0005 0)
(0.545428 20.0005 0)
(0.545428 20.0005 0)
(0.545428 20.0005 0)
(0.545428 20.0005 0)
(0.545428 20.0005 0)
(0.545428 20.0005 0)
(0.545428 20.0005 0)
(0.545428 20.0005 0)
(0.545428 20.0005 0)
(0.545428 20.0005 0)
(0.545428 20.0005 0)
(0.545428 20.0005 0)
(0.545428 20.0005 0)
(0.545428 20.0005 0)
(0.545428 20.0005 0)
(0.545428 20.0005 0)
(0.545428 20.0005 0)
(0.545428 20.0005 0)
(0.545428 20.0005 0)
(0.545428 20.0005 0)
(0.545428 20.0005 0)
(0.545428 20.0005 0)
(0.545428 20.0005 0)
(0.545428 20.0005 0)
(0.545428 20.0005 0)
(0.545428 20.0005 0)
(0.545428 20.0005 0)
(0.545429 20.0005 0)
(0.545429 20.0005 0)
(0.54543 20.0005 0)
(0.545431 20.0005 0)
(0.545433 20.0005 0)
(0.545436 20.0005 0)
(0.545442 20.0005 0)
(0.545453 20.0004 0)
(0.54547 20.0004 0)
(0.5455 20.0004 0)
(0.545551 20.0003 0)
(0.54564 20.0002 0)
(0.545798 20 0)
(0.546078 19.9997 0)
(0.546596 19.9993 0)
(0.547525 19.9988 0)
(0.549299 19.9982 0)
(0.552104 19.9977 0)
(0.556603 19.9974 0)
(0.401702 19.6539 0)
(0.413679 19.7199 0)
(0.437642 19.787 0)
(0.45517 19.8401 0)
(0.465519 19.8812 0)
(0.472674 19.9125 0)
(0.477583 19.9365 0)
(0.481498 19.9545 0)
(0.484508 19.968 0)
(0.486892 19.9779 0)
(0.488713 19.985 0)
(0.490095 19.9901 0)
(0.491116 19.9936 0)
(0.491856 19.996 0)
(0.492383 19.9976 0)
(0.49275 19.9987 0)
(0.493003 19.9993 0)
(0.493173 19.9998 0)
(0.493287 20 0)
(0.493362 20.0002 0)
(0.49341 20.0003 0)
(0.493442 20.0004 0)
(0.493462 20.0004 0)
(0.493475 20.0004 0)
(0.493483 20.0004 0)
(0.493489 20.0005 0)
(0.493492 20.0005 0)
(0.493494 20.0005 0)
(0.493495 20.0005 0)
(0.493496 20.0005 0)
(0.493497 20.0005 0)
(0.493497 20.0005 0)
(0.493497 20.0005 0)
(0.493497 20.0005 0)
(0.493498 20.0005 0)
(0.493498 20.0005 0)
(0.493498 20.0005 0)
(0.493498 20.0005 0)
(0.493498 20.0005 0)
(0.493498 20.0005 0)
(0.493498 20.0005 0)
(0.493498 20.0005 0)
(0.493498 20.0005 0)
(0.493498 20.0005 0)
(0.493498 20.0005 0)
(0.493498 20.0005 0)
(0.493498 20.0005 0)
(0.493498 20.0005 0)
(0.493498 20.0005 0)
(0.493498 20.0005 0)
(0.493498 20.0005 0)
(0.493498 20.0005 0)
(0.493498 20.0005 0)
(0.493498 20.0005 0)
(0.493498 20.0005 0)
(0.493498 20.0005 0)
(0.493498 20.0005 0)
(0.493498 20.0005 0)
(0.493498 20.0005 0)
(0.493498 20.0005 0)
(0.493498 20.0005 0)
(0.493498 20.0005 0)
(0.493498 20.0005 0)
(0.493498 20.0005 0)
(0.493498 20.0005 0)
(0.493498 20.0005 0)
(0.493498 20.0005 0)
(0.493498 20.0005 0)
(0.493498 20.0005 0)
(0.493498 20.0005 0)
(0.493498 20.0005 0)
(0.493498 20.0005 0)
(0.493498 20.0005 0)
(0.493498 20.0005 0)
(0.493498 20.0005 0)
(0.493498 20.0005 0)
(0.493498 20.0005 0)
(0.493498 20.0005 0)
(0.493498 20.0005 0)
(0.493498 20.0005 0)
(0.493498 20.0005 0)
(0.493498 20.0005 0)
(0.493499 20.0005 0)
(0.493499 20.0005 0)
(0.493501 20.0005 0)
(0.493503 20.0005 0)
(0.493506 20.0004 0)
(0.493512 20.0004 0)
(0.493522 20.0004 0)
(0.49354 20.0004 0)
(0.49357 20.0003 0)
(0.493622 20.0003 0)
(0.493712 20.0001 0)
(0.493872 19.9999 0)
(0.494159 19.9996 0)
(0.49469 19.9991 0)
(0.495642 19.9984 0)
(0.49745 19.9975 0)
(0.500273 19.9964 0)
(0.504715 19.9956 0)
(0.358163 19.6375 0)
(0.367849 19.701 0)
(0.389087 19.771 0)
(0.405045 19.8283 0)
(0.414816 19.8726 0)
(0.421591 19.9062 0)
(0.426295 19.9318 0)
(0.430036 19.9511 0)
(0.43292 19.9655 0)
(0.435201 19.9761 0)
(0.436948 19.9837 0)
(0.438274 19.9892 0)
(0.439255 19.993 0)
(0.439968 19.9956 0)
(0.440475 19.9973 0)
(0.44083 19.9985 0)
(0.441074 19.9992 0)
(0.441239 19.9997 0)
(0.441349 20 0)
(0.441422 20.0002 0)
(0.44147 20.0003 0)
(0.441501 20.0003 0)
(0.441521 20.0004 0)
(0.441533 20.0004 0)
(0.441541 20.0004 0)
(0.441547 20.0004 0)
(0.44155 20.0004 0)
(0.441552 20.0004 0)
(0.441553 20.0004 0)
(0.441554 20.0004 0)
(0.441555 20.0004 0)
(0.441555 20.0004 0)
(0.441555 20.0004 0)
(0.441555 20.0004 0)
(0.441556 20.0004 0)
(0.441556 20.0004 0)
(0.441556 20.0004 0)
(0.441556 20.0004 0)
(0.441556 20.0004 0)
(0.441556 20.0004 0)
(0.441556 20.0004 0)
(0.441556 20.0004 0)
(0.441556 20.0004 0)
(0.441556 20.0004 0)
(0.441556 20.0004 0)
(0.441556 20.0004 0)
(0.441556 20.0004 0)
(0.441556 20.0004 0)
(0.441556 20.0004 0)
(0.441556 20.0004 0)
(0.441556 20.0004 0)
(0.441556 20.0004 0)
(0.441556 20.0004 0)
(0.441556 20.0004 0)
(0.441556 20.0004 0)
(0.441556 20.0004 0)
(0.441556 20.0004 0)
(0.441556 20.0004 0)
(0.441556 20.0004 0)
(0.441556 20.0004 0)
(0.441556 20.0004 0)
(0.441556 20.0004 0)
(0.441556 20.0004 0)
(0.441556 20.0004 0)
(0.441556 20.0004 0)
(0.441556 20.0004 0)
(0.441556 20.0004 0)
(0.441556 20.0004 0)
(0.441556 20.0004 0)
(0.441556 20.0004 0)
(0.441556 20.0004 0)
(0.441556 20.0004 0)
(0.441556 20.0004 0)
(0.441556 20.0004 0)
(0.441556 20.0004 0)
(0.441556 20.0004 0)
(0.441556 20.0004 0)
(0.441556 20.0004 0)
(0.441556 20.0004 0)
(0.441556 20.0004 0)
(0.441556 20.0004 0)
(0.441556 20.0004 0)
(0.441557 20.0004 0)
(0.441557 20.0004 0)
(0.441559 20.0004 0)
(0.441561 20.0004 0)
(0.441564 20.0004 0)
(0.44157 20.0004 0)
(0.44158 20.0004 0)
(0.441597 20.0004 0)
(0.441626 20.0003 0)
(0.441677 20.0002 0)
(0.441766 20.0001 0)
(0.441925 19.9998 0)
(0.44221 19.9995 0)
(0.44274 19.9989 0)
(0.443685 19.998 0)
(0.445474 19.9967 0)
(0.448233 19.9951 0)
(0.452492 19.9937 0)
(0.315119 19.6235 0)
(0.322922 19.6846 0)
(0.341431 19.7568 0)
(0.355681 19.8176 0)
(0.364678 19.8648 0)
(0.370942 19.9004 0)
(0.375336 19.9275 0)
(0.378825 19.9479 0)
(0.381519 19.9632 0)
(0.383651 19.9744 0)
(0.385285 19.9826 0)
(0.386526 19.9884 0)
(0.387444 19.9924 0)
(0.388113 19.9952 0)
(0.388589 19.997 0)
(0.388923 19.9983 0)
(0.389153 19.9991 0)
(0.389309 19.9996 0)
(0.389413 19.9999 0)
(0.389483 20.0001 0)
(0.389528 20.0002 0)
(0.389557 20.0003 0)
(0.389576 20.0004 0)
(0.389588 20.0004 0)
(0.389596 20.0004 0)
(0.389601 20.0004 0)
(0.389604 20.0004 0)
(0.389606 20.0004 0)
(0.389607 20.0004 0)
(0.389608 20.0004 0)
(0.389609 20.0004 0)
(0.389609 20.0004 0)
(0.389609 20.0004 0)
(0.389609 20.0004 0)
(0.38961 20.0004 0)
(0.38961 20.0004 0)
(0.38961 20.0004 0)
(0.38961 20.0004 0)
(0.38961 20.0004 0)
(0.38961 20.0004 0)
(0.38961 20.0004 0)
(0.38961 20.0004 0)
(0.38961 20.0004 0)
(0.38961 20.0004 0)
(0.38961 20.0004 0)
(0.38961 20.0004 0)
(0.38961 20.0004 0)
(0.38961 20.0004 0)
(0.38961 20.0004 0)
(0.38961 20.0004 0)
(0.38961 20.0004 0)
(0.38961 20.0004 0)
(0.38961 20.0004 0)
(0.38961 20.0004 0)
(0.38961 20.0004 0)
(0.38961 20.0004 0)
(0.38961 20.0004 0)
(0.38961 20.0004 0)
(0.38961 20.0004 0)
(0.38961 20.0004 0)
(0.38961 20.0004 0)
(0.38961 20.0004 0)
(0.38961 20.0004 0)
(0.38961 20.0004 0)
(0.38961 20.0004 0)
(0.38961 20.0004 0)
(0.38961 20.0004 0)
(0.38961 20.0004 0)
(0.38961 20.0004 0)
(0.38961 20.0004 0)
(0.38961 20.0004 0)
(0.38961 20.0004 0)
(0.38961 20.0004 0)
(0.38961 20.0004 0)
(0.38961 20.0004 0)
(0.38961 20.0004 0)
(0.38961 20.0004 0)
(0.38961 20.0004 0)
(0.38961 20.0004 0)
(0.38961 20.0004 0)
(0.38961 20.0004 0)
(0.38961 20.0004 0)
(0.389611 20.0004 0)
(0.389611 20.0004 0)
(0.389612 20.0004 0)
(0.389614 20.0004 0)
(0.389618 20.0004 0)
(0.389623 20.0004 0)
(0.389633 20.0004 0)
(0.389649 20.0004 0)
(0.389677 20.0003 0)
(0.389725 20.0002 0)
(0.38981 20 0)
(0.389964 19.9998 0)
(0.390239 19.9993 0)
(0.390752 19.9986 0)
(0.391664 19.9976 0)
(0.39338 19.996 0)
(0.395998 19.9938 0)
(0.399971 19.9919 0)
(0.272461 19.6118 0)
(0.278701 19.6705 0)
(0.294528 19.7443 0)
(0.306977 19.8082 0)
(0.315042 19.8579 0)
(0.320683 19.8953 0)
(0.324674 19.9237 0)
(0.327841 19.9451 0)
(0.330291 19.9611 0)
(0.332229 19.973 0)
(0.333715 19.9815 0)
(0.334845 19.9876 0)
(0.335682 19.9919 0)
(0.336292 19.9948 0)
(0.336727 19.9968 0)
(0.337032 19.9981 0)
(0.337242 19.999 0)
(0.337385 19.9995 0)
(0.337481 19.9999 0)
(0.337545 20.0001 0)
(0.337587 20.0002 0)
(0.337614 20.0003 0)
(0.337631 20.0003 0)
(0.337643 20.0004 0)
(0.33765 20.0004 0)
(0.337654 20.0004 0)
(0.337657 20.0004 0)
(0.337659 20.0004 0)
(0.33766 20.0004 0)
(0.337661 20.0004 0)
(0.337661 20.0004 0)
(0.337662 20.0004 0)
(0.337662 20.0004 0)
(0.337662 20.0004 0)
(0.337662 20.0004 0)
(0.337662 20.0004 0)
(0.337662 20.0004 0)
(0.337662 20.0004 0)
(0.337663 20.0004 0)
(0.337663 20.0004 0)
(0.337663 20.0004 0)
(0.337663 20.0004 0)
(0.337663 20.0004 0)
(0.337663 20.0004 0)
(0.337663 20.0004 0)
(0.337663 20.0004 0)
(0.337663 20.0004 0)
(0.337663 20.0004 0)
(0.337663 20.0004 0)
(0.337663 20.0004 0)
(0.337663 20.0004 0)
(0.337663 20.0004 0)
(0.337663 20.0004 0)
(0.337663 20.0004 0)
(0.337663 20.0004 0)
(0.337663 20.0004 0)
(0.337663 20.0004 0)
(0.337663 20.0004 0)
(0.337663 20.0004 0)
(0.337663 20.0004 0)
(0.337663 20.0004 0)
(0.337663 20.0004 0)
(0.337663 20.0004 0)
(0.337663 20.0004 0)
(0.337663 20.0004 0)
(0.337663 20.0004 0)
(0.337663 20.0004 0)
(0.337663 20.0004 0)
(0.337663 20.0004 0)
(0.337663 20.0004 0)
(0.337663 20.0004 0)
(0.337663 20.0004 0)
(0.337663 20.0004 0)
(0.337663 20.0004 0)
(0.337663 20.0004 0)
(0.337663 20.0004 0)
(0.337663 20.0004 0)
(0.337663 20.0004 0)
(0.337663 20.0004 0)
(0.337663 20.0004 0)
(0.337663 20.0004 0)
(0.337663 20.0004 0)
(0.337663 20.0004 0)
(0.337664 20.0004 0)
(0.337665 20.0004 0)
(0.337667 20.0004 0)
(0.33767 20.0004 0)
(0.337675 20.0004 0)
(0.337684 20.0004 0)
(0.337698 20.0003 0)
(0.337724 20.0003 0)
(0.337769 20.0002 0)
(0.337848 20 0)
(0.337992 19.9997 0)
(0.338249 19.9992 0)
(0.33873 19.9984 0)
(0.339582 19.9972 0)
(0.341176 19.9953 0)
(0.343586 19.9926 0)
(0.347186 19.9902 0)
(0.230105 19.6021 0)
(0.235031 19.6586 0)
(0.248247 19.7336 0)
(0.258834 19.8001 0)
(0.265841 19.8519 0)
(0.270764 19.8909 0)
(0.274274 19.9204 0)
(0.277057 19.9427 0)
(0.279214 19.9594 0)
(0.280919 19.9717 0)
(0.282229 19.9806 0)
(0.283224 19.987 0)
(0.283962 19.9914 0)
(0.284501 19.9945 0)
(0.284885 19.9966 0)
(0.285155 19.998 0)
(0.285341 19.9989 0)
(0.285468 19.9994 0)
(0.285553 19.9998 0)
(0.28561 20 0)
(0.285647 20.0002 0)