/*--------------------------------*- C++ -*----------------------------------*\
| =========                 |                                                 |
| \\      /  F ield         | OpenFOAM: The Open Source CFD Toolbox           |
|  \\    /   O peration     | Version:  v1906                                 |
|   \\  /    A nd           | Web:      www.OpenFOAM.com                      |
|    \\/     M anipulation  |                                                 |
\*---------------------------------------------------------------------------*/
FoamFile
{
    version     2.0;
    format      ascii;
    class       volScalarField;
    location    "0.5";
    object      p;
}
// * * * * * * * * * * * * * * * * * * * * * * * * * * * * * * * * * * * * * //

dimensions      [0 2 -2 0 0 0 0];


internalField   nonuniform List<scalar> 
4000
(
625.962
599.183
593.603
585.859
579.188
572.267
565.635
559.087
552.69
546.382
540.156
533.986
527.858
521.761
515.687
509.627
503.577
497.535
491.497
485.462
479.429
473.397
467.366
461.336
455.305
449.275
443.245
437.215
431.185
425.155
419.125
413.095
407.065
401.036
395.006
388.976
382.946
376.916
370.886
364.856
358.826
352.797
346.767
340.737
334.707
328.677
322.647
316.617
310.587
304.558
298.528
292.498
286.468
280.438
274.408
268.378
262.348
256.318
250.288
244.258
238.228
232.198
226.168
220.138
214.107
208.077
202.047
196.017
189.987
183.957
177.927
171.897
165.867
159.836
153.806
147.776
141.746
135.716
129.686
123.656
117.625
111.595
105.565
99.5349
93.5047
87.4746
81.4445
75.4145
69.3847
63.3552
57.3261
51.2979
45.271
39.2461
33.2241
27.2049
21.1911
15.177
9.20209
3.20508
620.567
599.236
593.469
585.587
578.901
571.973
565.342
558.795
552.397
546.088
539.861
533.69
527.562
521.465
515.39
509.33
503.28
497.238
491.2
485.165
479.132
473.1
467.069
461.038
455.008
448.978
442.948
436.918
430.888
424.858
418.828
412.798
406.768
400.738
394.708
388.678
382.649
376.619
370.589
364.559
358.529
352.499
346.469
340.439
334.41
328.38
322.35
316.32
310.29
304.26
298.23
292.2
286.17
280.14
274.11
268.081
262.051
256.021
249.991
243.96
237.93
231.9
225.87
219.84
213.81
207.78
201.75
195.72
189.69
183.66
177.629
171.599
165.569
159.539
153.509
147.479
141.449
135.418
129.388
123.358
117.328
111.298
105.268
99.2375
93.2074
87.1772
81.1471
75.1171
69.0873
63.0578
57.0288
51.0006
44.9737
38.9488
32.9267
26.9076
20.8943
14.8816
8.90978
2.92918
617.058
599.26
593.387
585.414
578.72
571.779
565.148
558.599
552.201
545.891
539.663
533.491
527.363
521.265
515.19
509.129
503.08
497.037
490.999
484.964
478.931
472.899
466.868
460.837
454.807
448.777
442.747
436.717
430.687
424.657
418.627
412.597
406.567
400.537
394.507
388.477
382.448
376.418
370.388
364.358
358.328
352.298
346.268
340.239
334.209
328.179
322.149
316.119
310.089
304.059
298.029
291.999
285.969
279.939
273.91
267.88
261.85
255.82
249.79
243.759
237.729
231.699
225.669
219.639
213.609
207.579
201.549
195.519
189.489
183.459
177.428
171.398
165.368
159.338
153.308
147.278
141.248
135.218
129.187
123.157
117.127
111.097
105.067
99.0366
93.0064
86.9762
80.9462
74.9162
68.8863
62.8568
56.8278
50.7996
44.7727
38.7477
32.7257
26.7067
20.6938
14.682
8.71337
2.74457
615.157
599.381
593.397
585.387
578.684
571.731
565.099
558.546
552.147
545.836
539.608
533.435
527.307
521.209
515.133
509.073
503.023
496.98
490.942
484.907
478.874
472.842
466.811
460.78
454.75
448.72
442.69
436.66
430.63
424.6
418.57
412.54
406.51
400.48
394.45
388.421
382.391
376.361
370.331
364.301
358.271
352.241
346.211
340.182
334.152
328.122
322.092
316.062
310.032
304.002
297.972
291.942
285.912
279.883
273.853
267.823
261.793
255.763
249.733
243.703
237.672
231.642
225.612
219.582
213.552
207.522
201.492
195.462
189.432
183.402
177.372
171.341
165.311
159.281
153.251
147.221
141.191
135.161
129.13
123.1
117.07
111.04
105.01
98.9796
92.9494
86.9193
80.8892
74.8592
68.8294
62.7999
56.7708
50.7426
44.7157
38.6907
32.6687
26.6498
20.6372
14.6253
8.65679
2.68978
613.864
599.554
593.473
585.446
578.728
571.764
565.13
558.574
552.174
545.862
539.633
533.46
527.331
521.233
515.157
509.097
503.047
497.004
490.966
484.931
478.898
472.866
466.835
460.804
454.774
448.744
442.714
436.684
430.654
424.624
418.594
412.564
406.534
400.504
394.474
388.445
382.415
376.385
370.355
364.325
358.295
352.265
346.235
340.206
334.176
328.146
322.116
316.086
310.056
304.026
297.996
291.966
285.937
279.907
273.877
267.847
261.817
255.787
249.757
243.727
237.697
231.666
225.636
219.606
213.576
207.546
201.516
195.486
189.456
183.426
177.396
171.365
165.335
159.305
153.275
147.245
141.215
135.185
129.154
123.124
117.094
111.064
105.034
99.0036
92.9735
86.9433
80.9133
74.8833
68.8534
62.8239
56.7949
50.7666
44.7397
38.7147
32.6927
26.6739
20.6616
14.6494
8.67918
2.70802
612.821
599.719
593.576
585.542
578.804
571.828
565.191
558.633
552.233
545.92
539.69
533.517
527.387
521.289
515.213
509.153
503.103
497.06
491.022
484.987
478.954
472.922
466.891
460.86
454.83
448.799
442.769
436.739
430.709
424.68
418.65
412.62
406.59
400.56
394.53
388.5
382.47
376.44
370.41
364.381
358.351
352.321
346.291
340.261
334.231
328.201
322.172
316.142
310.112
304.082
298.052
292.022
285.992
279.962
273.932
267.902
261.872
255.842
249.812
243.782
237.752
231.722
225.692
219.662
213.632
207.602
201.572
195.541
189.511
183.481
177.451
171.421
165.391
159.361
153.331
147.3
141.27
135.24
129.21
123.18
117.15
111.12
105.089
99.0592
93.029
86.9989
80.9688
74.9388
68.909
62.8794
56.8504
50.8221
44.7951
38.7702
32.7482
26.7296
20.7172
14.7055
8.73196
2.75462
611.955
599.856
593.683
585.649
578.889
571.902
565.262
558.702
552.301
545.987
539.757
533.583
527.454
521.355
515.279
509.218
503.168
497.126
491.088
485.052
479.019
472.987
466.956
460.926
454.895
448.865
442.835
436.805
430.775
424.745
418.715
412.685
406.656
400.626
394.596
388.566
382.536
376.506
370.476
364.446
358.416
352.387
346.357
340.327
334.297
328.267
322.237
316.207
310.178
304.148
298.118
292.088
286.058
280.028
273.998
267.968
261.938
255.908
249.878
243.848
237.818
231.788
225.758
219.728
213.697
207.667
201.637
195.607
189.577
183.547
177.517
171.487
165.457
159.426
153.396
147.366
141.336
135.306
129.276
123.246
117.215
111.185
105.155
99.1249
93.0947
87.0646
81.0345
75.0045
68.9747
62.9451
56.9161
50.8878
44.8608
38.8358
32.8138
26.7954
20.7832
14.7723
8.794
2.81002
611.231
599.962
593.787
585.758
578.974
571.977
565.334
558.772
552.371
546.056
539.826
533.651
527.522
521.423
515.347
509.286
503.236
497.193
491.155
485.12
479.087
473.055
467.024
460.993
454.963
448.933
442.903
436.873
430.843
424.813
418.783
412.753
406.723
400.693
394.663
388.633
382.603
376.574
370.544
364.514
358.484
352.454
346.424
340.394
334.364
328.335
322.305
316.275
310.245
304.215
298.185
292.155
286.125
280.095
274.065
268.035
262.005
255.975
249.945
243.915
237.885
231.855
225.825
219.795
213.765
207.735
201.705
195.675
189.645
183.614
177.584
171.554
165.524
159.494
153.464
147.434
141.404
135.373
129.343
123.313
117.283
111.253
105.223
99.1924
93.1622
87.1321
81.102
75.072
69.0422
63.0126
56.9835
50.9553
44.9283
38.9033
32.8813
26.8631
20.851
14.8411
8.85729
2.86672
610.617
600.041
593.884
585.865
579.057
572.049
565.403
558.84
552.438
546.123
539.892
533.717
527.587
521.488
515.412
509.351
503.301
497.258
491.22
485.185
479.152
473.12
467.089
461.059
455.028
448.998
442.968
436.938
430.908
424.878
418.848
412.818
406.788
400.758
394.729
388.699
382.669
376.639
370.609
364.579
358.549
352.519
346.49
340.46
334.43
328.4
322.37
316.34
310.31
304.28
298.251
292.221
286.191
280.161
274.131
268.101
262.071
256.041
250.011
243.981
237.951
231.921
225.891
219.86
213.83
207.8
201.77
195.74
189.71
183.68
177.65
171.62
165.589
159.559
153.529
147.499
141.469
135.439
129.409
123.378
117.348
111.318
105.288
99.2578
93.2276
87.1974
81.1673
75.1373
69.1075
63.078
57.0489
51.0206
44.9936
38.9686
32.9466
26.9287
20.9167
14.908
8.91829
2.92142
610.093
600.098
593.971
585.966
579.134
572.116
565.468
558.903
552.5
546.185
539.954
533.779
527.649
521.55
515.473
509.413
503.363
497.32
491.282
485.247
479.213
473.182
467.15
461.12
455.089
449.059
443.029
436.999
430.969
424.939
418.909
412.88
406.85
400.82
394.79
388.76
382.73
376.7
370.67
364.64
358.611
352.581
346.551
340.521
334.491
328.461
322.431
316.402
310.372
304.342
298.312
292.282
286.252
280.222
274.192
268.162
262.132
256.102
250.072
244.042
238.012
231.982
225.952
219.922
213.892
207.862
201.831
195.801
189.771
183.741
177.711
171.681
165.651
159.621
153.59
147.56
141.53
135.5
129.47
123.44
117.41
111.379
105.349
99.319
93.2888
87.2587
81.2286
75.1986
69.1688
63.1392
57.1101
51.0818
45.0548
39.0298
33.0078
26.9903
20.9783
14.9711
8.9753
2.97254
609.645
600.137
594.048
586.06
579.205
572.179
565.527
558.961
552.558
546.242
540.011
533.836
527.705
521.606
515.53
509.469
503.419
497.376
491.338
485.303
479.27
473.238
467.207
461.176
455.146
449.116
443.085
437.056
431.026
424.996
418.966
412.936
406.906
400.876
394.846
388.816
382.786
376.756
370.727
364.697
358.667
352.637
346.607
340.577
334.547
328.518
322.488
316.458
310.428
304.398
298.368
292.338
286.308
280.278
274.248
268.218
262.188
256.158
250.128
244.098
238.068
232.038
226.008
219.978
213.948
207.918
201.888
195.858
189.827
183.797
177.767
171.737
165.707
159.677
153.647
147.617
141.586
135.556
129.526
123.496
117.466
111.436
105.405
99.3753
93.3451
87.315
81.2849
75.2549
69.225
63.1955
57.1664
51.1381
45.111
39.0861
33.0641
27.0468
21.035
15.0294
9.02752
3.01937
609.263
600.162
594.117
586.146
579.27
572.235
565.58
559.013
552.61
546.294
540.062
533.887
527.756
521.657
515.581
509.52
503.47
497.427
491.389
485.354
479.321
473.289
467.258
461.227
455.197
449.166
443.136
437.106
431.076
425.047
419.017
412.987
406.957
400.927
394.897
388.867
382.837
376.807
370.777
364.748
358.718
352.688
346.658
340.628
334.598
328.568
322.539
316.509
310.479
304.449
298.419
292.389
286.359
280.329
274.299
268.269
262.239
256.209
250.179
244.149
238.119
232.089
226.059
220.029
213.999
207.969
201.939
195.908
189.878
183.848
177.818
171.788
165.758
159.728
153.698
147.667
141.637
135.607
129.577
123.547
117.517
111.487
105.456
99.4262
93.396
87.3659
81.3358
75.3058
69.2759
63.2463
57.2172
51.1889
45.1619
39.137
33.115
27.098
21.0862
15.0823
9.07466
3.06164
608.939
600.176
594.176
586.224
579.327
572.285
565.627
559.059
552.656
546.339
540.108
533.932
527.802
521.702
515.626
509.565
503.515
497.472
491.434
485.399
479.366
473.334
467.303
461.272
455.242
449.212
443.182
437.152
431.122
425.092
419.062
413.032
407.002
400.972
394.942
388.912
382.883
376.853
370.823
364.793
358.763
352.733
346.703
340.673
334.644
328.614
322.584
316.554
310.524
304.494
298.464
292.434
286.404
280.374
274.345
268.315
262.285
256.255
250.224
244.194
238.164
232.134
226.104
220.074
214.044
208.014
201.984
195.954
189.924
183.894
177.864
171.833
165.803
159.773
153.743
147.713
141.683
135.653
129.622
123.592
117.562
111.532
105.502
99.4715
93.4414
87.4112
81.3811
75.3511
69.3213
63.2917
57.2626
51.2343
45.2072
39.1823
33.1603
27.1437
21.1319
15.1297
9.1166
3.09923
608.666
600.183
594.226
586.292
579.378
572.329
565.668
559.099
552.696
546.38
540.148
533.972
527.842
521.742
515.666
509.605
503.555
497.512
491.474
485.439
479.406
473.374
467.343
461.312
455.282
449.251
443.221
437.191
431.162
425.132
419.102
413.072
407.042
401.012
394.982
388.952
382.922
376.892
370.863
364.833
358.803
352.773
346.743
340.713
334.683
328.653
322.624
316.594
310.564
304.534
298.504
292.474
286.444
280.414
274.384
268.354
262.324
256.294
250.264
244.234
238.204
232.174
226.144
220.114
214.084
208.054
202.024
195.994
189.963
183.933
177.903
171.873
165.843
159.813
153.783
147.753
141.722
135.692
129.662
123.632
117.602
111.572
105.541
99.5112
93.4811
87.4509
81.4208
75.3908
69.361
63.3314
57.3023
51.274
45.2469
39.222
33.2
27.1837
21.172
15.1715
9.1533
3.13212
608.441
600.185
594.269
586.351
579.422
572.367
565.703
559.134
552.731
546.414
540.182
534.006
527.876
521.776
515.7
509.639
503.589
497.546
491.508
485.473
479.44
473.408
467.377
461.346
455.316
449.286
443.255
437.226
431.196
425.166
419.136
413.106
407.076
401.046
395.016
388.986
382.956
376.927
370.897
364.867
358.837
352.807
346.777
340.747
334.717
328.688
322.658
316.628
310.598
304.568
298.538
292.508
286.478
280.448
274.418
268.388
262.358
256.328
250.298
244.268
238.238
232.208
226.178
220.148
214.118
208.088
202.058
196.028
189.998
183.967
177.937
171.907
165.877
159.847
153.817
147.787
141.756
135.726
129.696
123.666
117.636
111.606
105.575
99.5453
93.5151
87.485
81.4549
75.4249
69.395
63.3655
57.3363
51.308
45.2809
39.2561
33.234
27.218
21.2063
15.2074
9.18474
3.16031
608.259
600.184
594.303
586.4
579.459
572.399
565.733
559.163
552.759
546.443
540.211
534.035
527.904
521.805
515.728
509.667
503.617
497.574
491.536
485.501
479.468
473.436
467.405
461.374
455.344
449.314
443.284
437.254
431.224
425.194
419.164
413.134
407.104
401.074
395.045
389.015
382.985
376.955
370.925
364.895
358.865
352.835
346.806
340.776
334.746
328.716
322.686
316.656
310.626
304.596
298.567
292.537
286.507
280.477
274.447
268.417
262.387
256.357
250.327
244.297
238.267
232.237
226.207
220.176
214.146
208.116
202.086
196.056
190.026
183.996
177.966
171.936
165.905
159.875
153.845
147.815
141.785
135.755
129.725
123.694
117.664
111.634
105.604
99.5737
93.5435
87.5134
81.4833
75.4533
69.4234
63.3939
57.3647
51.3364
45.3093
39.2844
33.2624
27.2466
21.235
15.2374
9.21094
3.18379
608.117
600.181
594.33
586.439
579.488
572.424
565.756
559.186
552.782
546.466
540.234
534.058
527.927
521.827
515.751
509.69
503.64
497.597
491.559
485.524
479.491
473.459
467.428
461.397
455.367
449.337
443.307
437.277
431.247
425.217
419.187
413.157
407.127
401.097
395.067
389.037
383.008
376.978
370.948
364.918
358.888
352.858
346.828
340.798
334.769
328.739
322.709
316.679
310.649
304.619
298.589
292.559
286.529
280.499
274.469
268.439
262.409
256.379
250.349
244.319
238.289
232.259
226.229
220.199
214.169
208.139
202.109
196.079
190.049
184.019
177.988
171.958
165.928
159.898
153.868
147.838
141.808
135.777
129.747
123.717
117.687
111.657
105.627
99.5964
93.5663
87.5361
81.506
75.476
69.4461
63.4166
57.3874
51.3591
45.332
39.3072
33.2851
27.2695
21.2579
15.2615
9.23189
3.20256
608.013
600.178
594.35
586.469
579.51
572.443
565.774
559.203
552.8
546.483
540.251
534.075
527.944
521.844
515.768
509.707
503.657
497.614
491.576
485.541
479.508
473.476
467.445
461.414
455.384
449.354
443.324
437.294
431.264
425.234
419.204
413.174
407.144
401.114
395.084
389.054
383.025
376.995
370.965
364.935
358.905
352.875
346.845
340.815
334.786
328.756
322.726
316.696
310.666
304.636
298.606
292.576
286.546
280.516
274.486
268.456
262.426
256.396
250.366
244.336
238.306
232.276
226.246
220.216
214.186
208.156
202.126
196.096
190.066
184.036
178.005
171.975
165.945
159.915
153.885
147.855
141.825
135.794
129.764
123.734
117.704
111.674
105.644
99.6135
93.5833
87.5532
81.5231
75.493
69.4632
63.4336
57.4045
51.3762
45.3491
39.3242
33.3022
27.2867
21.2751
15.2796
9.2476
3.21664
607.944
600.176
594.364
586.489
579.525
572.456
565.785
559.214
552.811
546.494
540.262
534.086
527.955
521.856
515.779
509.718
503.668
497.625
491.587
485.552
479.519
473.487
467.456
461.426
455.395
449.365
443.335
437.305
431.275
425.245
419.215
413.185
407.156
401.126
395.096
389.066
383.036
377.006
370.976
364.946
358.916
352.887
346.857
340.827
334.797
328.767
322.737
316.707
310.677
304.648
298.618
292.588
286.558
280.528
274.498
268.468
262.438
256.408
250.378
244.348
238.318
232.288
226.258
220.228
214.197
208.167
202.137
196.107
190.077
184.047
178.017
171.987
165.957
159.926
153.896
147.866
141.836
135.806
129.776
123.745
117.715
111.685
105.655
99.6248
93.5947
87.5645
81.5344
75.5044
69.4745
63.445
57.4158
51.3875
45.3604
39.3356
33.3135
27.2982
21.2866
15.2917
9.25807
3.22603
607.91
600.175
594.37
586.498
579.532
572.462
565.791
559.22
552.817
546.5
540.268
534.092
527.961
521.861
515.785
509.724
503.674
497.631
491.593
485.558
479.525
473.493
467.462
461.431
455.401
449.371
443.341
437.311
431.281
425.251
419.221
413.191
407.161
401.131
395.101
389.072
383.042
377.012
370.982
364.952
358.922
352.892
346.862
340.833
334.803
328.773
322.743
316.713
310.683
304.653
298.623
292.593
286.563
280.533
274.504
268.474
262.444
256.414
250.383
244.353
238.323
232.293
226.263
220.233
214.203
208.173
202.143
196.113
190.083
184.053
178.023
171.992
165.962
159.932
153.902
147.872
141.842
135.811
129.781
123.751
117.721
111.691
105.661
99.6305
93.6003
87.5702
81.5401
75.5101
69.4802
63.4506
57.4215
51.3932
45.3661
39.3412
33.3192
27.3039
21.2924
15.2977
9.2633
3.23072
607.91
600.175
594.37
586.498
579.532
572.462
565.791
559.22
552.817
546.5
540.268
534.092
527.961
521.861
515.785
509.724
503.674
497.631
491.593
485.558
479.525
473.493
467.462
461.431
455.401
449.371
443.341
437.311
431.281
425.251
419.221
413.191
407.161
401.131
395.101
389.072
383.042
377.012
370.982
364.952
358.922
352.892
346.862
340.833
334.803
328.773
322.743
316.713
310.683
304.653
298.623
292.593
286.563
280.533
274.503
268.474
262.444
256.414
250.383
244.353
238.323
232.293
226.263
220.233
214.203
208.173
202.143
196.113
190.083
184.053
178.023
171.992
165.962
159.932
153.902
147.872
141.842
135.811
129.781
123.751
117.721
111.691
105.661
99.6305
93.6003
87.5702
81.5401
75.5101
69.4802
63.4506
57.4215
51.3932
45.3661
39.3412
33.3192
27.3039
21.2924
15.2977
9.26331
3.23072
607.944
600.176
594.364
586.489
579.525
572.456
565.785
559.214
552.811
546.494
540.262
534.086
527.955
521.856
515.779
509.718
503.668
497.625
491.587
485.552
479.519
473.487
467.456
461.425
455.395
449.365
443.335
437.305
431.275
425.245
419.215
413.185
407.156
401.126
395.096
389.066
383.036
377.006
370.976
364.946
358.916
352.887
346.857
340.827
334.797
328.767
322.737
316.707
310.677
304.648
298.618
292.588
286.558
280.528
274.498
268.468
262.438
256.408
250.378
244.348
238.318
232.288
226.258
220.228
214.197
208.167
202.137
196.107
190.077
184.047
178.017
171.987
165.957
159.926
153.896
147.866
141.836
135.806
129.776
123.745
117.715
111.685
105.655
99.6248
93.5946
87.5645
81.5344
75.5044
69.4745
63.445
57.4158
51.3875
45.3604
39.3356
33.3135
27.2982
21.2866
15.2917
9.25807
3.22603
608.013
600.178
594.35
586.469
579.51
572.443
565.774
559.203
552.8
546.483
540.251
534.075
527.944
521.844
515.768
509.707
503.657
497.614
491.576
485.541
479.508
473.476
467.445
461.414
455.384
449.354
443.324
437.294
431.264
425.234
419.204
413.174
407.144
401.114
395.084
389.054
383.025
376.995
370.965
364.935
358.905
352.875
346.845
340.815
334.786
328.756
322.726
316.696
310.666
304.636
298.606
292.576
286.546
280.516
274.486
268.456
262.426
256.396
250.366
244.336
238.306
232.276
226.246
220.216
214.186
208.156
202.126
196.096
190.066
184.036
178.005
171.975
165.945
159.915
153.885
147.855
141.825
135.794
129.764
123.734
117.704
111.674
105.644
99.6134
93.5833
87.5531
81.523
75.493
69.4632
63.4336
57.4045
51.3762
45.3491
39.3242
33.3022
27.2867
21.2751
15.2796
9.2476
3.21664
608.117
600.181
594.33
586.439
579.488
572.424
565.756
559.186
552.782
546.466
540.234
534.058
527.927
521.827
515.751
509.69
503.64
497.597
491.559
485.524
479.491
473.459
467.428
461.397
455.367
449.337
443.307
437.277
431.247
425.217
419.187
413.157
407.127
401.097
395.067
389.037
383.008
376.978
370.948
364.918
358.888
352.858
346.828
340.798
334.769
328.739
322.709
316.679
310.649
304.619
298.589
292.559
286.529
280.499
274.469
268.439
262.409
256.379
250.349
244.319
238.289
232.259
226.229
220.199
214.169
208.139
202.109
196.079
190.049
184.019
177.988
171.958
165.928
159.898
153.868
147.838
141.808
135.777
129.747
123.717
117.687
111.657
105.627
99.5964
93.5662
87.5361
81.506
75.476
69.4461
63.4166
57.3874
51.3591
45.332
39.3072
33.2852
27.2695
21.2579
15.2615
9.23189
3.20256
608.259
600.184
594.303
586.4
579.459
572.399
565.733
559.163
552.759
546.443
540.211
534.035
527.904
521.805
515.728
509.667
503.617
497.574
491.536
485.501
479.468
473.436
467.405
461.374
455.344
449.314
443.284
437.254
431.224
425.194
419.164
413.134
407.104
401.074
395.045
389.015
382.985
376.955
370.925
364.895
358.865
352.835
346.806
340.776
334.746
328.716
322.686
316.656
310.626
304.596
298.566
292.537
286.507
280.477
274.447
268.417
262.387
256.357
250.327
244.297
238.267
232.237
226.207
220.176
214.146
208.116
202.086
196.056
190.026
183.996
177.966
171.936
165.905
159.875
153.845
147.815
141.785
135.755
129.725
123.694
117.664
111.634
105.604
99.5737
93.5435
87.5134
81.4833
75.4533
69.4234
63.3938
57.3647
51.3364
45.3093
39.2845
33.2624
27.2466
21.235
15.2374
9.21095
3.18378
608.441
600.185
594.269
586.35
579.422
572.367
565.703
559.134
552.731
546.414
540.182
534.006
527.876
521.776
515.7
509.639
503.589
497.546
491.508
485.473
479.44
473.408
467.377
461.346
455.316
449.285
443.255
437.225
431.196
425.166
419.136
413.106
407.076
401.046
395.016
388.986
382.956
376.927
370.897
364.867
358.837
352.807
346.777
340.747
334.717
328.688
322.658
316.628
310.598
304.568
298.538
292.508
286.478
280.448
274.418
268.388
262.358
256.328
250.298
244.268
238.238
232.208
226.178
220.148
214.118
208.088
202.058
196.028
189.998
183.967
177.937
171.907
165.877
159.847
153.817
147.787
141.756
135.726
129.696
123.666
117.636
111.606
105.575
99.5453
93.5151
87.485
81.4549
75.4249
69.395
63.3654
57.3363
51.308
45.2809
39.2561
33.2341
27.218
21.2063
15.2074
9.18475
3.1603
608.666
600.183
594.226
586.292
579.378
572.329
565.668
559.099
552.696
546.38
540.148
533.972
527.842
521.742
515.666
509.605
503.555
497.512
491.474
485.439
479.406
473.374
467.343
461.312
455.282
449.251
443.221
437.191
431.161
425.132
419.102
413.072
407.042
401.012
394.982
388.952
382.922
376.892
370.863
364.833
358.803
352.773
346.743
340.713
334.683
328.654
322.624
316.594
310.564
304.534
298.504
292.474
286.444
280.414
274.384
268.354
262.324
256.294
250.264
244.234
238.204
232.174
226.144
220.114
214.084
208.054
202.024
195.994
189.964
183.933
177.903
171.873
165.843
159.813
153.783
147.753
141.722
135.692
129.662
123.632
117.602
111.572
105.541
99.5112
93.481
87.4509
81.4208
75.3908
69.3609
63.3314
57.3023
51.274
45.2469
39.222
33.2
27.1837
21.172
15.1715
9.15331
3.13212
608.939
600.176
594.176
586.224
579.327
572.285
565.627
559.059
552.656
546.339
540.108
533.932
527.802
521.702
515.626
509.565
503.515
497.472
491.434
485.399
479.366
473.334
467.303
461.272
455.242
449.212
443.182
437.152
431.122
425.092
419.062
413.032
407.002
400.972
394.942
388.913
382.883
376.853
370.823
364.793
358.763
352.733
346.703
340.674
334.644
328.614
322.584
316.554
310.524
304.494
298.464
292.434
286.404
280.374
274.344
268.314
262.285
256.255
250.224
244.194
238.164
232.134
226.104
220.074
214.044
208.014
201.984
195.954
189.924
183.894
177.864
171.833
165.803
159.773
153.743
147.713
141.683
135.652
129.622
123.592
117.562
111.532
105.502
99.4715
93.4413
87.4112
81.3811
75.3511
69.3212
63.2917
57.2626
51.2343
45.2072
39.1823
33.1603
27.1437
21.1319
15.1298
9.11661
3.09923
609.263
600.162
594.117
586.146
579.27
572.235
565.58
559.012
552.61
546.294
540.062
533.887
527.756
521.657
515.581
509.52
503.47
497.427
491.389
485.354
479.32
473.289
467.257
461.227
455.196
449.166
443.136
437.106
431.076
425.046
419.017
412.987
406.957
400.927
394.897
388.867
382.837
376.807
370.777
364.748
358.718
352.688
346.658
340.628
334.598
328.568
322.539
316.509
310.479
304.449
298.419
292.389
286.359
280.329
274.299
268.269
262.239
256.209
250.179
244.149
238.119
232.089
226.059
220.029
213.999
207.969
201.939
195.909
189.878
183.848
177.818
171.788
165.758
159.728
153.698
147.667
141.637
135.607
129.577
123.547
117.517
111.486
105.456
99.4261
93.396
87.3658
81.3357
75.3057
69.2759
63.2463
57.2172
51.1889
45.1619
39.137
33.115
27.098
21.0862
15.0823
9.07468
3.06163
609.645
600.137
594.048
586.06
579.205
572.179
565.527
558.96
552.558
546.242
540.011
533.836
527.705
521.606
515.53
509.469
503.419
497.376
491.338
485.303
479.27
473.238
467.207
461.176
455.146
449.115
443.085
437.055
431.025
424.996
418.966
412.936
406.906
400.876
394.846
388.816
382.786
376.756
370.727
364.697
358.667
352.637
346.607
340.577
334.547
328.518
322.488
316.458
310.428
304.398
298.368
292.338
286.308
280.278
274.248
268.218
262.188
256.158
250.128
244.098
238.068
232.038
226.008
219.978
213.948
207.918
201.888
195.858
189.828
183.797
177.767
171.737
165.707
159.677
153.647
147.617
141.586
135.556
129.526
123.496
117.466
111.436
105.405
99.3752
93.3451
87.3149
81.2848
75.2548
69.225
63.1954
57.1663
51.1381
45.111
39.0861
33.0641
27.0469
21.035
15.0294
9.02754
3.01937
610.093
600.098
593.971
585.966
579.134
572.116
565.468
558.903
552.5
546.185
539.954
533.779
527.649
521.55
515.473
509.413
503.363
497.32
491.282
485.246
479.213
473.181
467.15
461.12
455.089
449.059
443.029
436.999
430.969
424.939
418.909
412.88
406.85
400.82
394.79
388.76
382.73
376.7
370.67
364.64
358.611
352.581
346.551
340.521
334.491
328.461
322.431
316.402
310.372
304.342
298.312
292.282
286.252
280.222
274.192
268.162
262.132
256.102
250.072
244.042
238.012
231.982
225.952
219.922
213.892
207.862
201.831
195.801
189.771
183.741
177.711
171.681
165.651
159.621
153.59
147.56
141.53
135.5
129.47
123.44
117.409
111.379
105.349
99.3189
93.2888
87.2586
81.2286
75.1986
69.1687
63.1392
57.1101
51.0818
45.0548
39.0298
33.0079
26.9903
20.9784
14.9711
8.97532
2.97254
610.617
600.041
593.884
585.865
579.057
572.049
565.403
558.84
552.438
546.123
539.892
533.717
527.587
521.488
515.412
509.351
503.301
497.258
491.22
485.185
479.152
473.12
467.089
461.058
455.028
448.998
442.968
436.938
430.908
424.878
418.848
412.818
406.788
400.758
394.729
388.699
382.669
376.639
370.609
364.579
358.549
352.519
346.49
340.46
334.43
328.4
322.37
316.34
310.31
304.28
298.25
292.221
286.191
280.161
274.131
268.101
262.071
256.041
250.011
243.981
237.951
231.921
225.891
219.86
213.83
207.8
201.77
195.74
189.71
183.68
177.65
171.62
165.59
159.559
153.529
147.499
141.469
135.439
129.409
123.378
117.348
111.318
105.288
99.2577
93.2275
87.1974
81.1673
75.1373
69.1075
63.0779
57.0489
51.0206
44.9936
38.9686
32.9466
26.9288
20.9167
14.908
8.91832
2.92142
611.231
599.962
593.787
585.758
578.974
571.977
565.334
558.772
552.371
546.056
539.826
533.651
527.522
521.423
515.347
509.286
503.236
497.193
491.155
485.12
479.087
473.055
467.024
460.993
454.963
448.933
442.903
436.873
430.843
424.813
418.783
412.753
406.723
400.693
394.663
388.633
382.603
376.574
370.544
364.514
358.484
352.454
346.424
340.394
334.365
328.335
322.305
316.275
310.245
304.215
298.185
292.155
286.125
280.095
274.065
268.035
262.005
255.975
249.945
243.915
237.885
231.855
225.825
219.795
213.765
207.735
201.705
195.675
189.645
183.615
177.584
171.554
165.524
159.494
153.464
147.434
141.403
135.373
129.343
123.313
117.283
111.253
105.222
99.1923
93.1622
87.132
81.1019
75.0719
69.0421
63.0126
56.9835
50.9553
44.9283
38.9033
32.8813
26.8632
20.851
14.8411
8.85731
2.86672
611.955
599.856
593.683
585.649
578.889
571.902
565.262
558.702
552.301
545.987
539.757
533.583
527.454
521.355
515.279
509.218
503.168
497.126
491.087
485.052
479.019
472.987
466.956
460.926
454.895
448.865
442.835
436.805
430.775
424.745
418.715
412.685
406.655
400.626
394.596
388.566
382.536
376.506
370.476
364.446
358.416
352.387
346.357
340.327
334.297
328.267
322.237
316.207
310.177
304.148
298.118
292.088
286.058
280.028
273.998
267.968
261.938
255.908
249.878
243.848
237.818
231.788
225.758
219.728
213.698
207.667
201.637
195.607
189.577
183.547
177.517
171.487
165.457
159.426
153.396
147.366
141.336
135.306
129.276
123.245
117.215
111.185
105.155
99.1248
93.0946
87.0645
81.0344
75.0044
68.9746
62.9451
56.916
50.8878
44.8608
38.8359
32.8139
26.7955
20.7832
14.7723
8.79402
2.81002
612.821
599.719
593.576
585.542
578.804
571.828
565.191
558.633
552.233
545.92
539.69
533.517
527.387
521.289
515.213
509.153
503.103
497.06
491.022
484.987
478.954
472.922
466.89
460.86
454.829
448.799
442.769
436.739
430.709
424.679
418.65
412.62
406.59
400.56
394.53
388.5
382.47
376.44
370.41
364.381
358.351
352.321
346.291
340.261
334.231
328.201
322.172
316.142
310.112
304.082
298.052
292.022
285.992
279.962
273.932
267.902
261.872
255.842
249.812
243.782
237.752
231.722
225.692
219.662
213.632
207.602
201.572
195.542
189.511
183.481
177.451
171.421
165.391
159.361
153.331
147.3
141.27
135.24
129.21
123.18
117.15
111.119
105.089
99.0591
93.0289
86.9988
80.9687
74.9387
68.9089
62.8794
56.8503
50.8221
44.7951
38.7702
32.7482
26.7296
20.7172
14.7056
8.73198
2.75461
613.864
599.554
593.473
585.446
578.728
571.764
565.13
558.574
552.174
545.862
539.633
533.46
527.331
521.233
515.158
509.097
503.047
497.004
490.966
484.931
478.898
472.866
466.835
460.804
454.774
448.744
442.714
436.684
430.654
424.624
418.594
412.564
406.534
400.504
394.474
388.445
382.415
376.385
370.355
364.325
358.295
352.265
346.236
340.206
334.176
328.146
322.116
316.086
310.056
304.026
297.996
291.966
285.937
279.907
273.877
267.847
261.817
255.787
249.757
243.727
237.697
231.666
225.636
219.606
213.576
207.546
201.516
195.486
189.456
183.426
177.396
171.366
165.335
159.305
153.275
147.245
141.215
135.185
129.154
123.124
117.094
111.064
105.034
99.0036
92.9734
86.9433
80.9132
74.8832
68.8534
62.8239
56.7948
50.7666
44.7397
38.7147
32.6927
26.6739
20.6616
14.6494
8.67921
2.70801
615.157
599.381
593.397
585.387
578.684
571.731
565.099
558.546
552.147
545.836
539.608
533.435
527.307
521.209
515.133
509.073
503.023
496.98
490.942
484.907
478.874
472.842
466.811
460.78
454.75
448.72
442.69
436.66
430.63
424.6
418.57
412.54
406.51
400.48
394.45
388.421
382.391
376.361
370.331
364.301
358.271
352.241
346.211
340.182
334.152
328.122
322.092
316.062
310.032
304.002
297.972
291.942
285.912
279.882
273.853
267.823
261.793
255.763
249.733
243.703
237.672
231.642
225.612
219.582
213.552
207.522
201.492
195.462
189.432
183.402
177.372
171.342
165.311
159.281
153.251
147.221
141.191
135.161
129.13
123.1
117.07
111.04
105.01
98.9795
92.9493
86.9192
80.8891