/*--------------------------------*- C++ -*----------------------------------*\
| =========                 |                                                 |
| \\      /  F ield         | OpenFOAM: The Open Source CFD Toolbox           |
|  \\    /   O peration     | Version:  v1906                                 |
|   \\  /    A nd           | Web:      www.OpenFOAM.com                      |
|    \\/     M anipulation  |                                                 |
\*---------------------------------------------------------------------------*/
FoamFile
{
    version     2.0;
    format      ascii;
    class       volScalarField;
    location    "0.5";
    object      p;
}
// * * * * * * * * * * * * * * * * * * * * * * * * * * * * * * * * * * * * * //

dimensions      [0 2 -2 0 0 0 0];


internalField   nonuniform List<scalar> 
4000
(
426.162
412.927
408.881
403.624
398.971
394.225
389.674
385.188
380.797
376.464
372.181
367.933
363.714
359.514
355.328
351.153
346.984
342.82
338.658
334.499
330.341
326.184
322.027
317.871
313.715
309.559
305.403
301.247
297.091
292.935
288.779
284.623
280.467
276.311
272.155
267.999
263.843
259.687
255.531
251.375
247.219
243.063
238.907
234.751
230.595
226.439
222.283
218.128
213.972
209.816
205.66
201.504
197.348
193.192
189.036
184.88
180.724
176.568
172.413
168.257
164.101
159.945
155.789
151.634
147.478
143.322
139.166
135.01
130.855
126.699
122.543
118.387
114.231
110.076
105.92
101.764
97.6083
93.4525
89.2967
85.1409
80.9851
76.8293
72.6735
68.5177
64.3619
60.2062
56.0505
51.8948
47.7394
43.5841
39.4293
35.2751
31.1219
26.9704
22.8214
18.6755
14.534
10.3945
6.27175
2.14864
423.715
412.836
408.731
403.436
398.781
394.033
389.482
384.996
380.604
376.27
371.987
367.739
363.519
359.319
355.133
350.958
346.789
342.625
338.463
334.304
330.146
325.989
321.832
317.676
313.519
309.363
305.207
301.051
296.895
292.739
288.583
284.427
280.271
276.115
271.96
267.804
263.648
259.492
255.336
251.18
247.024
242.868
238.712
234.556
230.4
226.244
222.088
217.932
213.776
209.62
205.464
201.308
197.152
192.997
188.841
184.685
180.529
176.373
172.217
168.061
163.906
159.75
155.594
151.438
147.283
143.127
138.971
134.815
130.659
126.504
122.348
118.192
114.036
109.88
105.725
101.569
97.413
93.2572
89.1014
84.9456
80.7898
76.634
72.4782
68.3224
64.1666
60.0109
55.8552
51.6995
47.5441
43.3888
39.234
35.0798
30.9266
26.7751
22.6261
18.4801
14.3388
10.1998
6.0784
1.96703
422.433
412.833
408.683
403.357
398.702
393.949
389.399
384.911
380.519
376.184
371.901
367.653
363.433
359.232
355.047
350.871
346.702
342.538
338.376
334.217
330.059
325.902
321.745
317.589
313.433
309.276
305.12
300.964
296.808
292.652
288.496
284.34
280.185
276.029
271.873
267.717
263.561
259.405
255.249
251.093
246.937
242.781
238.625
234.469
230.313
226.157
222.001
217.845
213.689
209.533
205.377
201.221
197.066
192.91
188.754
184.598
180.442
176.286
172.13
167.975
163.819
159.663
155.507
151.351
147.196
143.04
138.884
134.728
130.572
126.417
122.261
118.105
113.949
109.793
105.638
101.482
97.326
93.1702
89.0144
84.8586
80.7028
76.547
72.3912
68.2355
64.0797
59.9239
55.7682
51.6126
47.4571
43.3019
39.147
34.9928
30.8397
26.6881
22.5391
18.3932
14.252
10.113
5.99228
1.88591
421.914
412.925
408.72
403.374
398.719
393.962
389.411
384.922
380.53
376.194
371.91
367.662
363.442
359.241
355.055
350.879
346.71
342.546
338.385
334.226
330.068
325.91
321.754
317.597
313.441
309.285
305.129
300.973
296.817
292.661
288.505
284.349
280.193
276.037
271.881
267.725
263.569
259.413
255.257
251.101
246.945
242.789
238.633
234.477
230.322
226.166
222.01
217.854
213.698
209.542
205.386
201.23
197.074
192.918
188.762
184.606
180.45
176.295
172.139
167.983
163.827
159.671
155.516
151.36
147.204
143.048
138.892
134.737
130.581
126.425
122.269
118.113
113.958
109.802
105.646
101.49
97.3345
93.1787
89.0228
84.867
80.7112
76.5554
72.3996
68.2439
64.0881
59.9323
55.7766
51.621
47.4655
43.3103
39.1554
35.0012
30.8481
26.6965
22.5474
18.4015
14.2604
10.1218
5.99988
1.89072
421.577
413.036
408.785
403.421
398.763
394.001
389.45
384.96
380.567
376.231
371.947
367.699
363.478
359.278
355.092
350.916
346.747
342.583
338.421
334.262
330.104
325.947
321.79
317.634
313.477
309.321
305.165
301.009
296.853
292.697
288.541
284.385
280.229
276.073
271.917
267.761
263.606
259.45
255.294
251.138
246.982
242.826
238.67
234.514
230.358
226.202
222.046
217.89
213.734
209.578
205.422
201.266
197.11
192.954
188.799
184.643
180.487
176.331
172.175
168.019
163.864
159.708
155.552
151.396
147.24
143.085
138.929
134.773
130.617
126.461
122.306
118.15
113.994
109.838
105.682
101.527
97.3709
93.2151
89.0592
84.9034
80.7476
76.5918
72.436
68.2803
64.1245
59.9687
55.813
51.6574
47.5019
43.3467
39.1918
35.0376
30.8844
26.7329
22.5838
18.4379
14.2969
10.1581
6.03526
1.92175
421.273
413.132
408.852
403.471
398.808
394.042
389.491
385
380.607
376.271
371.986
367.737
363.517
359.316
355.13
350.954
346.785
342.621
338.46
334.3
330.142
325.985
321.828
317.672
313.516
309.36
305.204
301.047
296.892
292.736
288.58
284.424
280.268
276.112
271.956
267.8
263.644
259.488
255.332
251.176
247.02
242.864
238.708
234.552
230.396
226.24
222.084
217.928
213.773
209.617
205.461
201.305
197.149
192.993
188.837
184.681
180.525
176.369
172.214
168.058
163.902
159.746
155.59
151.435
147.279
143.123
138.967
134.811
130.656
126.5
122.344
118.188
114.032
109.877
105.721
101.565
97.4092
93.2534
89.0976
84.9418
80.786
76.6302
72.4744
68.3186
64.1629
60.0071
55.8514
51.6958
47.5403
43.385
39.2302
35.076
30.9228
26.7712
22.6221
18.4762
14.3352
10.1969
6.07297
1.95502
421.003
413.211
408.916
403.519
398.851
394.08
389.53
385.038
380.645
376.308
372.023
367.775
363.554
359.353
355.167
350.991
346.822
342.658
338.496
334.337
330.179
326.022
321.865
317.709
313.552
309.396
305.24
301.084
296.928
292.772
288.616
284.46
280.304
276.148
271.992
267.836
263.681
259.525
255.369
251.213
247.057
242.901
238.745
234.589
230.433
226.277
222.121
217.965
213.809
209.653
205.497
201.341
197.185
193.03
188.874
184.718
180.562
176.406
172.25
168.094
163.939
159.783
155.627
151.471
147.315
143.16
139.004
134.848
130.692
126.536
122.381
118.225
114.069
109.913
105.757
101.602
97.4459
93.2901
89.1343
84.9785
80.8227
76.6669
72.5111
68.3553
64.1995
60.0438
55.8881
51.7324
47.577
43.4217
39.2668
35.1126
30.9594
26.8078
22.6587
18.5129
14.372
10.2342
6.10881
1.98643
420.769
413.275
408.976
403.566
398.891
394.117
389.566
385.074
380.681
376.344
372.059
367.81
363.589
359.388
355.202
351.026
346.857
342.692
338.531
334.372
330.214
326.056
321.9
317.743
313.587
309.431
305.275
301.119
296.963
292.807
288.651
284.495
280.339
276.183
272.027
267.871
263.715
259.559
255.403
251.247
247.091
242.935
238.78
234.624
230.468
226.312
222.156
218
213.844
209.688
205.532
201.376
197.22
193.064
188.908
184.752
180.597
176.441
172.285
168.129
163.973
159.817
155.662
151.506
147.35
143.194
139.039
134.883
130.727
126.571
122.415
118.26
114.104
109.948
105.792
101.636
97.4806
93.3248
89.169
85.0131
80.8573
76.7015
72.5457
68.39
64.2342
60.0784
55.9227
51.7671
47.6116
43.4564
39.3015
35.1472
30.994
26.8424
22.6933
18.5476
14.4068
10.2695
6.14258
2.01584
420.565
413.327
409.032
403.61
398.928
394.15
389.6
385.107
380.714
376.377
372.091
367.842
363.621
359.42
355.234
351.058
346.889
342.725
338.563
334.404
330.246
326.089
321.932
317.776
313.619
309.463
305.307
301.151
296.995
292.839
288.683
284.527
280.371
276.215
272.059
267.903
263.747
259.592
255.436
251.28
247.124
242.968
238.812
234.656
230.5
226.344
222.188
218.032
213.876
209.72
205.564
201.408
197.252
193.096
188.941
184.785
180.629
176.473
172.317
168.161
164.006
159.85
155.694
151.538
147.382
143.227
139.071
134.915
130.759
126.603
122.448
118.292
114.136
109.98
105.824
101.669
97.5129
93.357
89.2012
85.0454
80.8896
76.7338
72.578
68.4223
64.2665
60.1107
55.955
51.7994
47.6439
43.4886
39.3338
35.1795
31.0263
26.8747
22.7255
18.5799
14.4391
10.3026
6.17404
2.04309
420.387
413.37
409.083
403.651
398.962
394.181
389.631
385.138
380.745
376.407
372.121
367.872
363.651
359.45
355.264
351.088
346.919
342.754
338.593
334.434
330.276
326.118
321.962
317.805
313.649
309.493
305.337
301.181
297.025
292.869
288.713
284.557
280.401
276.245
272.089
267.933
263.777
259.621
255.465
251.309
247.153
242.997
238.841
234.686
230.53
226.374
222.218
218.062
213.906
209.75
205.594
201.438
197.282
193.126
188.97
184.814
180.659
176.503
172.347
168.191
164.035
159.879
155.724
151.568
147.412
143.256
139.1
134.945
130.789
126.633
122.477
118.322
114.166
110.01
105.854
101.698
97.5425
93.3867
89.2309
85.0751
80.9193
76.7635
72.6077
68.4519
64.2961
60.1404
55.9847
51.8291
47.6736
43.5183
39.3634
35.2092
31.0559
26.9043
22.7552
18.6096
14.4689
10.3331
6.20298
2.06802
420.231
413.404
409.129
403.689
398.993
394.209
389.659
385.165
380.772
376.434
372.149
367.899
363.678
359.477
355.291
351.115
346.946
342.781
338.62
334.461
330.303
326.145
321.989
317.832
313.676
309.52
305.364
301.208
297.052
292.896
288.74
284.584
280.428
276.272
272.116
267.96
263.804
259.648
255.492
251.336
247.18
243.024
238.868
234.713
230.557
226.401
222.245
218.089
213.933
209.777
205.621
201.465
197.309
193.153
188.997
184.841
180.685
176.53
172.374
168.218
164.062
159.906
155.751
151.595
147.439
143.283
139.127
134.972
130.816
126.66
122.504
118.348
114.193
110.037
105.881
101.725
97.5695
93.4137
89.2579
85.1021
80.9463
76.7905
72.6347
68.4789
64.3231
60.1674
56.0117
51.856
47.7005
43.5453
39.3904
35.2361
31.0829
26.9313
22.7821
18.6366
14.4959
10.3609
6.22932
2.09062
420.096
413.431
409.17
403.723
399.021
394.234
389.684
385.19
380.797
376.459
372.173
367.924
363.703
359.502
355.315
351.139
346.97
342.805
338.644
334.485
330.327
326.17
322.013
317.856
313.7
309.544
305.388
301.232
297.076
292.92
288.764
284.608
280.452
276.296
272.14
267.984
263.828
259.672
255.517
251.361
247.205
243.049
238.893
234.737
230.581
226.425
222.269
218.113
213.957
209.801
205.645
201.489
197.333
193.177
189.022
184.866
180.71
176.554
172.398
168.242
164.086
159.931
155.775
151.619
147.463
143.308
139.152
134.996
130.84
126.684
122.529
118.373
114.217
110.061
105.905
101.75
97.5938
93.438
89.2822
85.1264
80.9706
76.8148
72.659
68.5032
64.3474
60.1917
56.036
51.8803
47.7248
43.5696
39.4147
35.2604
31.1072
26.9556
22.8064
18.661
14.5203
10.3861
6.25305
2.1109
419.98
413.453
409.206
403.754
399.046
394.256
389.706
385.212
380.819
376.481
372.195
367.945
363.724
359.523
355.337
351.161
346.991
342.827
338.666
334.506
330.348
326.191
322.034
317.878
313.722
309.566
305.41
301.254
297.098
292.942
288.786
284.63
280.474
276.318
272.162
268.006
263.85
259.694
255.538
251.382
247.226
243.07
238.914
234.758
230.602
226.447
222.291
218.135
213.979
209.823
205.667
201.511
197.355
193.199
189.043
184.887
180.731
176.576
172.42
168.264
164.108
159.952
155.796
151.641
147.485
143.329
139.173
135.018
130.862
126.706
122.55
118.394
114.239
110.083
105.927
101.771
97.6154
93.4596
89.3038
85.148
80.9921
76.8363
72.6806
68.5248
64.369
60.2133
56.0575
51.9019
47.7464
43.5911
39.4363
35.282
31.1287
26.9771
22.8279
18.6826
14.5419
10.4085
6.27417
2.12888
419.882
413.47
409.238
403.782
399.068
394.276
389.726
385.231
380.838
376.5
372.214
367.964
363.743
359.542
355.356
351.18
347.01
342.846
338.685
334.525
330.367
326.21
322.053
317.897
313.741
309.585
305.429
301.273
297.117
292.961
288.805
284.649
280.493
276.337
272.181
268.025
263.869
259.713
255.557
251.401
247.245
243.089
238.933
234.777
230.621
226.465
222.309
218.154
213.998
209.842
205.686
201.53
197.374
193.218
189.062
184.906
180.75
176.594
172.439
168.283
164.127
159.971
155.815
151.66
147.504
143.348
139.192
135.036
130.881
126.725
122.569
118.413
114.257
110.102
105.946
101.79
97.6343
93.4785
89.3226
85.1668
81.011
76.8552
72.6994
68.5437
64.3879
60.2321
56.0764
51.9208
47.7653
43.61
39.4551
35.3009
31.1476
26.996
22.8468
18.7015
14.5609
10.4282
6.29267
2.14458
419.799
413.484
409.265
403.805
399.086
394.292
389.742
385.248
380.855
376.516
372.231
367.981
363.759
359.558
355.372
351.196
347.027
342.862
338.701
334.541
330.383
326.226
322.07
317.913
313.757
309.601
305.445
301.289
297.133
292.977
288.821
284.665
280.509
276.353
272.197
268.041
263.885
259.729
255.573
251.417
247.261
243.105
238.949
234.793
230.638
226.482
222.326
218.17
214.014
209.858
205.702
201.546
197.39
193.234
189.078
184.922
180.766
176.611
172.455
168.299
164.143
159.987
155.832
151.676
147.52
143.364
139.208
135.053
130.897
126.741
122.585
118.429
114.274
110.118
105.962
101.806
97.6505
93.4946
89.3388
85.183
81.0272
76.8714
72.7156
68.5599
64.4041
60.2483
56.0926
51.937
47.7815
43.6262
39.4713
35.3171
31.1638
27.0122
22.8629
18.7178
14.5772
10.4451
6.30854
2.15801
419.732
413.494
409.287
403.825
399.102
394.306
389.756
385.261
380.869
376.53
372.244
367.994
363.773
359.572
355.385
351.209
347.04
342.876
338.714
334.555
330.397
326.24
322.083
317.927
313.77
309.614
305.458
301.302
297.146
292.99
288.834
284.678
280.522
276.366
272.21
268.055
263.899
259.743
255.587
251.431
247.275
243.119
238.963
234.807
230.651
226.495
222.339
218.183
214.027
209.871
205.715
201.559
197.403
193.248
189.092
184.936
180.78
176.624
172.468
168.312
164.157
160.001
155.845
151.689
147.533
143.378
139.222
135.066
130.91
126.755
122.599
118.443
114.287
110.131
105.976
101.82
97.6639
93.5081
89.3523
85.1965
81.0407
76.8849
72.7291
68.5733
64.4176
60.2618
56.1061
51.9505
47.795
43.6397
39.4848
35.3306
31.1773
27.0257
22.8764
18.7313
14.5907
10.4593
6.32177
2.1692
419.68
413.502
409.305
403.841
399.114
394.317
389.767
385.272
380.879
376.541
372.255
368.005
363.784
359.583
355.396
351.22
347.051
342.886
338.725
334.566
330.408
326.25
322.094
317.937
313.781
309.625
305.469
301.313
297.157
293.001
288.845
284.689
280.533
276.377
272.221
268.065
263.909
259.753
255.597
251.442
247.286
243.13
238.974
234.818
230.662
226.506
222.35
218.194
214.038
209.882
205.726
201.57
197.414
193.258
189.102
184.947
180.791
176.635
172.479
168.323
164.167
160.012
155.856
151.7
147.544
143.388
139.233
135.077
130.921
126.765
122.61
118.454
114.298
110.142
105.986
101.831
97.6747
93.5189
89.3631
85.2073
81.0515
76.8957
72.7399
68.5841
64.4284
60.2726
56.1169
51.9613
47.8058
43.6505
39.4956
35.3413
31.1881
27.0365
22.8872
18.7421
14.6015
10.4706
6.33237
2.17814
419.641
413.507
409.318
403.853
399.123
394.325
389.775
385.281
380.888
376.549
372.263
368.013
363.792
359.591
355.404
351.228
347.059
342.894
338.733
334.574
330.416
326.259
322.102
317.945
313.789
309.633
305.477
301.321
297.165
293.009
288.853
284.697
280.541
276.385
272.229
268.073
263.917
259.762
255.606
251.45
247.294
243.138
238.982
234.826
230.67
226.514
222.358
218.202
214.046
209.89
205.734
201.578
197.422
193.266
189.111
184.955
180.799
176.643
172.487
168.331
164.176
160.02
155.864
151.708
147.552
143.397
139.241
135.085
130.929
126.773
122.618
118.462
114.306
110.15
105.994
101.839
97.6828
93.527
89.3712
85.2154
81.0596
76.9038
72.748
68.5922
64.4365
60.2807
56.125
51.9694
47.8139
43.6586
39.5037
35.3494
31.1962
27.0446
22.8953
18.7502
14.6097
10.4791
6.34032
2.18484
419.615
413.51
409.327
403.861
399.129
394.331
389.781
385.286
380.893
376.554
372.269
368.019
363.797
359.596
355.41
351.233
347.064
342.9
338.739
334.579
330.421
326.264
322.107
317.951
313.795
309.639
305.483
301.327
297.171
293.015
288.859
284.703
280.547
276.391
272.235
268.079
263.923
259.767
255.611
251.455
247.299
243.143
238.987
234.831
230.675
226.519
222.363
218.207
214.052
209.896
205.74
201.584
197.428
193.272
189.116
184.96
180.804
176.648
172.493
168.337
164.181
160.025
155.869
151.714
147.558
143.402
139.246
135.09
130.935
126.779
122.623
118.467
114.311
110.156
106
101.844
97.6882
93.5324
89.3766
85.2208
81.065
76.9092
72.7534
68.5976
64.4419
60.2861
56.1304
51.9748
47.8193
43.664
39.5091
35.3548
31.2016
27.05
22.9007
18.7557
14.6151
10.4848
6.34563
2.1893
419.602
413.512
409.332
403.865
399.132
394.334
389.783
385.289
380.896
376.557
372.271
368.021
363.8
359.599
355.412
351.236
347.067
342.903
338.741
334.582
330.424
326.267
322.11
317.954
313.797
309.641
305.485
301.329
297.173
293.017
288.861
284.705
280.549
276.393
272.237
268.082
263.926
259.77
255.614
251.458
247.302
243.146
238.99
234.834
230.678
226.522
222.366
218.21
214.054
209.898
205.742
201.586
197.43
193.275
189.119
184.963
180.807
176.651
172.495
168.339
164.184
160.028
155.872
151.716
147.56
143.405
139.249
135.093
130.937
126.782
122.626
118.47
114.314
110.158
106.003
101.847
97.6909
93.5351
89.3793
85.2235
81.0677
76.9119
72.7561
68.6003
64.4446
60.2888
56.1331
51.9775
47.822
43.6667
39.5118
35.3575
31.2043
27.0527
22.9034
18.7584
14.6178
10.4876
6.34828
2.19153
419.602
413.512
409.332
403.865
399.132
394.334
389.783
385.289
380.896
376.557
372.271
368.021
363.8
359.599
355.412
351.236
347.067
342.903
338.741
334.582
330.424
326.267
322.11
317.954
313.797
309.641
305.485
301.329
297.173
293.017
288.861
284.705
280.549
276.393
272.237
268.082
263.926
259.77
255.614
251.458
247.302
243.146
238.99
234.834
230.678
226.522
222.366
218.21
214.054
209.898
205.742
201.586
197.43
193.275
189.119
184.963
180.807
176.651
172.495
168.339
164.184
160.028
155.872
151.716
147.56
143.405
139.249
135.093
130.937
126.782
122.626
118.47
114.314
110.158
106.003
101.847
97.6909
93.5351
89.3793
85.2235
81.0677
76.9119
72.7561
68.6003
64.4446
60.2888
56.1331
51.9775
47.822
43.6667
39.5118
35.3575
31.2043
27.0527
22.9034
18.7584
14.6178
10.4876
6.34828
2.19153
419.615
413.51
409.327
403.861
399.129
394.331
389.781
385.286
380.893
376.554
372.269
368.019
363.797
359.596
355.41
351.233
347.064
342.9
338.739
334.579
330.421
326.264
322.107
317.951
313.795
309.639
305.482
301.326
297.171
293.015
288.859
284.703
280.547
276.391
272.235
268.079
263.923
259.767
255.611
251.455
247.299
243.143
238.987
234.831
230.675
226.519
222.363
218.207
214.052
209.896
205.74
201.584
197.428
193.272
189.116
184.96
180.804
176.648
172.493
168.337
164.181
160.025
155.869
151.714
147.558
143.402
139.246
135.09
130.935
126.779
122.623
118.467
114.311
110.156
106
101.844
97.6882
93.5324
89.3766
85.2208
81.065
76.9092
72.7534
68.5976
64.4419
60.2861
56.1304
51.9748
47.8193
43.664
39.5091
35.3548
31.2016
27.05
22.9007
18.7557
14.6151
10.4848
6.34563
2.1893
419.641
413.507
409.318
403.853
399.123
394.325
389.775
385.28
380.888
376.549
372.263
368.013
363.792
359.591
355.404
351.228
347.059
342.894
338.733
334.574
330.416
326.259
322.102
317.945
313.789
309.633
305.477
301.321
297.165
293.009
288.853
284.697
280.541
276.385
272.229
268.073
263.917
259.762
255.606
251.45
247.294
243.138
238.982
234.826
230.67
226.514
222.358
218.202
214.046
209.89
205.734
201.578
197.422
193.266
189.111
184.955
180.799
176.643
172.487
168.331
164.176
160.02
155.864
151.708
147.552
143.397
139.241
135.085
130.929
126.773
122.618
118.462
114.306
110.15
105.994
101.839
97.6828
93.527
89.3712
85.2154
81.0596
76.9038
72.748
68.5922
64.4365
60.2807
56.125
51.9694
47.8139
43.6586
39.5037
35.3494
31.1962
27.0446
22.8953
18.7502
14.6097
10.4791
6.34033
2.18484
419.68
413.502
409.305
403.841
399.114
394.317
389.767
385.272
380.879
376.541
372.255
368.005
363.784
359.583
355.396
351.22
347.051
342.886
338.725
334.566
330.408
326.251
322.094
317.937
313.781
309.625
305.469
301.313
297.157
293.001
288.845
284.689
280.533
276.377
272.221
268.065
263.909
259.753
255.598
251.442
247.286
243.13
238.974
234.818
230.662
226.506
222.35
218.194
214.038
209.882
205.726
201.57
197.414
193.258
189.102
184.947
180.791
176.635
172.479
168.323
164.167
160.012
155.856
151.7
147.544
143.388
139.233
135.077
130.921
126.765
122.61
118.454
114.298
110.142
105.986
101.831
97.6747
93.5189
89.3631
85.2073
81.0515
76.8957
72.7399
68.5841
64.4284
60.2726
56.1169
51.9613
47.8058
43.6505
39.4956
35.3413
31.1881
27.0365
22.8872
18.7421
14.6015
10.4706
6.33237
2.17814
419.732
413.494
409.287
403.825
399.102
394.306
389.756
385.261
380.868
376.53
372.244
367.994
363.773
359.572
355.385
351.209
347.04
342.876
338.714
334.555
330.397
326.24
322.083
317.927
313.77
309.614
305.458
301.302
297.146
292.99
288.834
284.678
280.522
276.366
272.21
268.055
263.899
259.743
255.587
251.431
247.275
243.119
238.963
234.807
230.651
226.495
222.339
218.183
214.027
209.871
205.715
201.559
197.403
193.248
189.092
184.936
180.78
176.624
172.468
168.312
164.157
160.001
155.845
151.689
147.533
143.378
139.222
135.066
130.91
126.755
122.599
118.443
114.287
110.131
105.976
101.82
97.6639
93.5081
89.3523
85.1965
81.0407
76.8849
72.7291
68.5733
64.4176
60.2618
56.1061
51.9505
47.795
43.6397
39.4848
35.3306
31.1773
27.0257
22.8764
18.7313
14.5907
10.4593
6.32178
2.1692
419.799
413.484
409.265
403.805
399.086
394.292
389.742
385.248
380.855
376.516
372.23
367.981
363.759
359.558
355.372
351.196
347.027
342.862
338.701
334.541
330.383
326.226
322.07
317.913
313.757
309.601
305.445
301.289
297.133
292.977
288.821
284.665
280.509
276.353
272.197
268.041
263.885
259.729
255.573
251.417
247.261
243.105
238.949
234.794
230.638
226.482
222.326
218.17
214.014
209.858
205.702
201.546
197.39
193.234
189.078
184.922
180.766
176.611
172.455
168.299
164.143
159.987
155.832
151.676
147.52
143.364
139.208
135.053
130.897
126.741
122.585
118.429
114.274
110.118
105.962
101.806
97.6504
93.4946
89.3388
85.183
81.0272
76.8714
72.7156
68.5598
64.4041
60.2483
56.0926
51.937
47.7815
43.6262
39.4713
35.3171
31.1638
27.0122
22.863
18.7178
14.5772
10.4451
6.30854
2.15802
419.882
413.47
409.238
403.782
399.067
394.276
389.726
385.231
380.838
376.5
372.214
367.964
363.743
359.542
355.356
351.179
347.01
342.846
338.685
334.525
330.367
326.21
322.053
317.897
313.741
309.585
305.429
301.273
297.117
292.961
288.805
284.649
280.493
276.337
272.181
268.025
263.869
259.713
255.557
251.401
247.245
243.089
238.933
234.777
230.621
226.465
222.309
218.153
213.998
209.842
205.686
201.53
197.374
193.218
189.062
184.906
180.75
176.594
172.439
168.283
164.127
159.971
155.815
151.66
147.504
143.348
139.192
135.036
130.881
126.725
122.569
118.413
114.257
110.102
105.946
101.79
97.6343
93.4785
89.3226
85.1668
81.011
76.8552
72.6994
68.5437
64.3879
60.2321
56.0764
51.9208
47.7653
43.61
39.4551
35.3009
31.1476
26.996
22.8468
18.7015
14.5609
10.4282
6.29268
2.14458
419.98
413.453
409.206
403.754
399.046
394.256
389.706
385.212
380.819
376.48
372.195
367.945
363.724
359.523
355.337
351.161
346.991
342.827
338.666
334.506
330.348
326.191
322.034
317.878
313.722
309.566
305.41
301.254
297.098
292.942
288.786
284.63
280.474
276.318
272.162
268.006
263.85
259.694
255.538
251.382
247.226
243.07
238.914
234.758
230.602
226.447
222.291
218.135
213.979
209.823
205.667
201.511
197.355
193.199
189.043
184.887
180.731
176.576
172.42
168.264
164.108
159.952
155.796
151.641
147.485
143.329
139.173
135.018
130.862
126.706
122.55
118.394
114.239
110.083
105.927
101.771
97.6154
93.4596
89.3038
85.148
80.9921
76.8364
72.6806
68.5248
64.369
60.2132
56.0575
51.9019
47.7464
43.5911
39.4362
35.282
31.1287
26.9771
22.8279
18.6826
14.542
10.4085
6.27418
2.12888
420.096
413.431
409.17
403.723
399.021
394.234
389.684
385.19
380.797
376.459
372.173
367.923
363.702
359.501
355.315
351.139
346.97
342.805
338.644
334.485
330.327
326.17
322.013
317.856
313.7
309.544
305.388
301.232
297.076
292.92
288.764
284.608
280.452
276.296
272.14
267.984
263.828
259.673
255.517
251.361
247.205
243.049
238.893
234.737
230.581
226.425
222.269
218.113
213.957
209.801
205.645
201.489
197.333
193.177
189.022
184.866
180.71
176.554
172.398
168.242
164.086
159.931
155.775
151.619
147.463
143.308
139.152
134.996
130.84
126.684
122.529
118.373
114.217
110.061
105.905
101.75
97.5938
93.438
89.2822
85.1264
80.9706
76.8148
72.659
68.5032
64.3474
60.1916
56.0359
51.8803
47.7248
43.5696
39.4147
35.2604
31.1072
26.9556
22.8064
18.661
14.5203
10.3861
6.25306
2.1109
420.231
413.404
409.129
403.689
398.993
394.209
389.659
385.165
380.772
376.434
372.149
367.899
363.678
359.477
355.291
351.115
346.946
342.781
338.62
334.461
330.303
326.145
321.989
317.832
313.676
309.52
305.364
301.208
297.052
292.896
288.74
284.584
280.428
276.272
272.116
267.96
263.804
259.648
255.492
251.336
247.18
243.024
238.869
234.713
230.557
226.401
222.245
218.089
213.933
209.777
205.621
201.465
197.309
193.153
188.997
184.841
180.686
176.53
172.374
168.218
164.062
159.906
155.751
151.595
147.439
143.283
139.127
134.972
130.816
126.66
122.504
118.348
114.193
110.037
105.881
101.725
97.5695
93.4137
89.2579
85.1021
80.9463
76.7905
72.6347
68.4789
64.3231
60.1674
56.0117
51.856
47.7005
43.5453
39.3904
35.2361
31.0829
26.9313
22.7821
18.6366
14.4959
10.3609
6.22933
2.09062
420.386
413.37
409.083
403.651
398.962
394.181
389.631
385.137
380.744
376.406
372.121
367.872
363.651
359.45
355.264
351.088
346.919
342.754
338.593
334.434
330.276
326.118
321.962
317.805
313.649
309.493
305.337
301.181
297.025
292.869
288.713
284.557
280.401
276.245
272.089
267.933
263.777
259.621
255.465
251.309
247.153
242.998
238.842
234.686
230.53
226.374
222.218
218.062
213.906
209.75
205.594
201.438
197.282
193.126
188.97
184.814
180.659
176.503
172.347
168.191
164.035
159.879
155.724
151.568
147.412
143.256
139.1
134.945
130.789
126.633
122.477
118.321
114.166
110.01
105.854
101.698
97.5425
93.3867
89.2309
85.0751
80.9193
76.7635
72.6077
68.4519
64.2961
60.1404
55.9847
51.8291
47.6736
43.5183
39.3634
35.2092
31.0559
26.9044
22.7552
18.6096
14.4689
10.3331
6.20299
2.06803
420.565
413.327
409.032
403.609
398.928
394.15
389.6
385.107
380.714
376.376
372.091
367.842
363.621
359.42
355.234
351.058
346.889
342.725
338.563
334.404
330.246
326.089
321.932
317.776
313.619
309.463
305.307
301.151
296.995
292.839
288.683
284.527
280.371
276.215
272.059
267.904
263.748
259.592
255.436
251.28
247.124
242.968
238.812
234.656
230.5
226.344
222.188
218.032
213.876
209.72
205.564
201.408
197.252
193.096
188.941
184.785
180.629
176.473
172.317
168.161
164.006
159.85
155.694
151.538
147.382
143.227
139.071
134.915
130.759
126.603
122.448
118.292
114.136
109.98
105.824
101.669
97.5128
93.357
89.2012
85.0454
80.8896
76.7338
72.578
68.4222
64.2665
60.1107
55.955
51.7994
47.6439
43.4886
39.3338
35.1795
31.0263
26.8747
22.7256
18.5799
14.4391
10.3026
6.17405
2.04309
420.769
413.275
408.976
403.565
398.891
394.117
389.566
385.074
380.681
376.343
372.058
367.809
363.589
359.388
355.202
351.026
346.857
342.692
338.531
334.372
330.214
326.056
321.9
317.743
313.587
309.431
305.275
301.119
296.963
292.807
288.651
284.495
280.339
276.183
272.027
267.871
263.715
259.559
255.403
251.247
247.091
242.936
238.78
234.624
230.468
226.312
222.156
218
213.844
209.688
205.532
201.376
197.22
193.064
188.908
184.752
180.597
176.441
172.285
168.129
163.973
159.817
155.662
151.506
147.35
143.194
139.039
134.883
130.727
126.571
122.415
118.26
114.104
109.948
105.792
101.636
97.4806
93.3248
89.169
85.0132
80.8573
76.7015
72.5457
68.39
64.2342
60.0784
55.9227
51.7671
47.6116
43.4564
39.3015
35.1472
30.994
26.8424
22.6933
18.5476
14.4068
10.2696
6.14259
2.01585
421.003
413.21
408.916
403.519
398.85
394.08
389.529
385.038
380.645
376.308
372.023
367.774
363.554
359.353
355.167
350.991
346.822
342.658
338.496
334.337
330.179
326.022
321.865
317.709
313.552
309.396
305.24
301.084
296.928
292.772
288.616
284.46
280.304
276.148
271.992
267.837
263.681
259.525
255.369
251.213
247.057
242.901
238.745
234.589
230.433
226.277
222.121
217.965
213.809
209.653
205.497
201.341
197.185
193.03
188.874
184.718
180.562
176.406
172.25
168.094
163.939
159.783
155.627
151.471
147.315
143.16
139.004
134.848
130.692
126.536
122.381
118.225
114.069
109.913
105.757
101.602
97.4459
93.2901
89.1343
84.9785
80.8227
76.6669
72.5111
68.3553
64.1995
60.0437
55.888
51.7324
47.5769
43.4217
39.2668
35.1126
30.9594
26.8078
22.6587
18.5129
14.372
10.2342
6.10883
1.98644
421.273
413.132
408.852
403.47
398.808
394.041
389.49
385
380.607
376.27
371.986
367.737
363.517
359.316
355.13
350.954
346.785
342.621
338.46
334.3
330.142
325.985
321.828
317.672
313.516
309.36
305.203
301.047
296.891
292.736
288.58
284.424
280.268
276.112
271.956
267.8
263.644
259.488
255.332
251.176
247.02
242.864
238.708
234.552
230.396
226.24
222.084
217.928
213.773
209.617
205.461
201.305
197.149
192.993
188.837
184.681
180.525
176.369
172.214
168.058
163.902
159.746
155.59
151.435
147.279
143.123
138.967
134.811
130.656
126.5
122.344
118.188
114.032
109.877
105.721
101.565
97.4092
93.2534
89.0976
84.9418
80.786
76.6302
72.4744
68.3186
64.1628
60.0071
55.8514
51.6958
47.5403
43.385
39.2302
35.076
30.9228
26.7712
22.6221
18.4762
14.3353
10.1969
6.07298
1.95503
421.577
413.036
408.785
403.421
398.762
394
389.449
384.96
380.567
376.231
371.947
367.698
363.478
359.278
355.092
350.916
346.747
342.582
338.421
334.262
330.104
325.947
321.79
317.634
313.477
309.321
305.165
301.009
296.853
292.697
288.541
284.385
280.229
276.073
271.917
267.762
263.606
259.45
255.294
251.138
246.982
242.826
238.67
234.514
230.358
226.202
222.046
217.89
213.734
209.578
205.422
201.266
197.11
192.954
188.799
184.643
180.487
176.331
172.175
168.019
163.864
159.708
155.552
151.396
147.24
143.085
138.929
134.773
130.617
126.461
122.306
118.15
113.994
109.838
105.682
101.527
97.3708
93.2151
89.0593
84.9034
80.7476
76.5918
72.436
68.2802
64.1245
59.9687
55.813
51.6574
47.5019
43.3467
39.1918
35.0376
30.8844
26.7329
22.5838
18.4379
14.2969
10.1581
6.03527
1.92176
421.914
412.925
408.72
403.374
398.719
393.961
389.41
384.922
380.53
376.194
371.91
367.662
363.441
359.241
355.055
350.879
346.71
342.546
338.385
334.226
330.068
325.91
321.754
317.597
313.441
309.285
305.129
300.973
296.817
292.661
288.505
284.349
280.193
276.037
271.881
267.725
263.569
259.413
255.257
251.101
246.945
242.789
238.633
234.478
230.322
226.166
222.01
217.854
213.698
209.542
205.386
201.23
197.074
192.918
188.762
184.606
180.45
176.295
172.139
167.983
163.827
159.671
155.516
151.36
147.204
143.048
138.892
134.737
130.581
126.425
122.269
118.113
113.958
109.802
105.646
101.49
97.3344
93.1787
89.0229
84.8671
80.7112
76.5554
72.3996
68.2438
64.0881
59.9323
55.7766
51.621
47.4655
43.3103
39.1554
35.0012
30.8481
26.6965
22.5474
18.4016