/*--------------------------------*- C++ -*----------------------------------*\
| =========                 |                                                 |
| \\      /  F ield         | OpenFOAM: The Open Source CFD Toolbox           |
|  \\    /   O peration     | Version:  v1906                                 |
|   \\  /    A nd           | Web:      www.OpenFOAM.com                      |
|    \\/     M anipulation  |                                                 |
\*---------------------------------------------------------------------------*/
FoamFile
{
    version     2.0;
    format      ascii;
    class       volScalarField;
    location    "0.5";
    object      p;
}
// * * * * * * * * * * * * * * * * * * * * * * * * * * * * * * * * * * * * * //

dimensions      [0 2 -2 0 0 0 0];


internalField   nonuniform List<scalar> 
4000
(
837.163
819.647
813.396
802.296
794.755
785.413
777.452
768.77
760.617
752.172
743.929
735.567
727.284
718.953
710.653
702.334
694.027
685.712
677.402
669.09
660.779
652.467
644.155
635.843
627.532
619.22
610.908
602.597
594.285
585.973
577.661
569.35
561.038
552.726
544.414
536.103
527.791
519.479
511.167
502.856
494.544
486.232
477.92
469.608
461.297
452.985
444.673
436.361
428.05
419.738
411.426
403.115
394.803
386.491
378.18
369.868
361.556
353.245
344.933
336.621
328.31
319.998
311.686
303.375
295.063
286.751
278.44
270.128
261.817
253.505
245.194
236.882
228.571
220.259
211.948
203.636
195.325
187.013
178.702
170.391
162.079
153.768
145.457
137.145
128.834
120.522
112.211
103.9
95.5885
87.2773
78.966
70.6548
62.3435
54.0325
45.7216
37.4116
29.1033
20.7986
12.5049
4.2142
836.023
819.462
813.218
802.1
794.567
785.218
777.26
768.576
760.424
751.978
743.735
735.373
727.09
718.759
710.459
702.14
693.833
685.519
677.209
668.896
660.585
652.273
643.962
635.65
627.338
619.026
610.715
602.403
594.091
585.779
577.468
569.156
560.844
552.532
544.221
535.909
527.597
519.285
510.974
502.662
494.35
486.038
477.726
469.415
461.103
452.791
444.479
436.168
427.856
419.544
411.233
402.921
394.609
386.298
377.986
369.674
361.363
353.051
344.739
336.428
328.116
319.804
311.493
303.181
294.869
286.558
278.246
269.935
261.623
253.311
245
236.688
228.377
220.066
211.754
203.443
195.131
186.82
178.508
170.197
161.886
153.574
145.263
136.951
128.64
120.329
112.017
103.706
95.3949
87.0836
78.7723
70.4611
62.1499
53.8388
45.5279
37.2179
28.9097
20.6049
12.3115
4.02408
835.495
819.39
813.145
802.01
794.484
785.129
777.174
768.487
760.337
751.89
743.648
735.286
727.003
718.672
710.372
702.053
693.746
685.431
677.121
668.809
660.498
652.186
643.874
635.562
627.251
618.939
610.627
602.316
594.004
585.692
577.38
569.069
560.757
552.445
544.133
535.822
527.51
519.198
510.886
502.575
494.263
485.951
477.639
469.327
461.016
452.704
444.392
436.08
427.769
419.457
411.145
402.834
394.522
386.21
377.898
369.587
361.275
352.963
344.652
336.34
328.028
319.717
311.405
303.094
294.782
286.47
278.159
269.847
261.536
253.224
244.913
236.601
228.29
219.978
211.667
203.355
195.044
186.732
178.421
170.11
161.798
153.487
145.175
136.864
128.553
120.241
111.93
103.619
95.3075
86.9962
78.6849
70.3737
62.0625
53.7515
45.4406
37.1305
28.8223
20.5176
12.2242
3.93778
835.375
819.425
813.16
802.017
794.496
785.137
777.183
768.495
760.346
751.898
743.656
735.294
727.011
718.68
710.38
702.061
693.754
685.439
677.129
668.816
660.506
652.193
643.882
635.57
627.259
618.947
610.635
602.323
594.012
585.7
577.388
569.076
560.765
552.453
544.141
535.829
527.518
519.206
510.894
502.582
494.271
485.959
477.647
469.335
461.023
452.712
444.4
436.088
427.777
419.465
411.153
402.841
394.53
386.218
377.906
369.595
361.283
352.971
344.66
336.348
328.036
319.725
311.413
303.101
294.79
286.478
278.167
269.855
261.544
253.232
244.921
236.609
228.298
219.986
211.675
203.363
195.052
186.74
178.429
170.118
161.806
153.495
145.183
136.872
128.561
120.249
111.938
103.627
95.3154
87.0041
78.6928
70.3816
62.0704
53.7593
45.4484
37.1384
28.8302
20.5254
12.2323
3.94479
835.344
819.493
813.201
802.055
794.534
785.173
777.22
768.531
760.382
751.934
743.693
735.33
727.047
718.716
710.416
702.097
693.79
685.475
677.166
668.853
660.542
652.23
643.919
635.607
627.295
618.983
610.672
602.36
594.048
585.736
577.425
569.113
560.801
552.489
544.178
535.866
527.554
519.242
510.931
502.619
494.307
485.995
477.683
469.372
461.06
452.748
444.436
436.125
427.813
419.501
411.19
402.878
394.566
386.254
377.943
369.631
361.319
353.008
344.696
336.384
328.073
319.761
311.449
303.138
294.826
286.515
278.203
269.892
261.58
253.268
244.957
236.645
228.334
220.023
211.711
203.4
195.088
186.777
178.465
170.154
161.843
153.531
145.22
136.908
128.597
120.286
111.974
103.663
95.3518
87.0406
78.7293
70.4181
62.1068
53.7958
45.4849
37.1749
28.8666
20.5619
12.2684
3.97896
835.315
819.561
813.244
802.095
794.574
785.212
777.259
768.57
760.421
751.972
743.731
735.368
727.086
718.755
710.455
702.136
693.829
685.514
677.204
668.891
660.58
652.268
643.957
635.645
627.334
619.022
610.71
602.398
594.087
585.775
577.463
569.151
560.84
552.528
544.216
535.904
527.593
519.281
510.969
502.657
494.346
486.034
477.722
469.41
461.098
452.787
444.475
436.163
427.851
419.54
411.228
402.916
394.605
386.293
377.981
369.67
361.358
353.046
344.735
336.423
328.111
319.8
311.488
303.176
294.865
286.553
278.242
269.93
261.618
253.307
244.995
236.684
228.372
220.061
211.75
203.438
195.127
186.815
178.504
170.192
161.881
153.57
145.258
136.947
128.636
120.324
112.013
103.702
95.3903
87.079
78.7678
70.4565
62.1453
53.8343
45.5234
37.2133
28.905
20.6004
12.3066
4.016
835.287
819.624
813.285
802.133
794.613
785.248
777.297
768.606
760.458
752.009
743.768
735.405
727.123
718.791
710.491
702.172
693.865
685.551
677.241
668.928
660.617
652.305
643.994
635.682
627.37
619.059
610.747
602.435
594.123
585.812
577.5
569.188
560.876
552.565
544.253
535.941
527.629
519.318
511.006
502.694
494.382
486.07
477.759
469.447
461.135
452.823
444.512
436.2
427.888
419.576
411.265
402.953
394.641
386.33
378.018
369.706
361.395
353.083
344.771
336.46
328.148
319.836
311.525
303.213
294.901
286.59
278.278
269.967
261.655
253.344
245.032
236.721
228.409
220.098
211.786
203.475
195.163
186.852
178.541
170.229
161.918
153.606
145.295
136.984
128.672
120.361
112.05
103.738
95.427
87.1157
78.8044
70.4932
62.182
53.871
45.56
37.25
28.9417
20.6371
12.3432
4.05151
835.263
819.682
813.324
802.168
794.649
785.283
777.332
768.641
760.493
752.044
743.802
735.44
727.157
718.826
710.526
702.207
693.9
685.585
677.276
668.963
660.652
652.34
644.028
635.716
627.405
619.093
610.782
602.47
594.158
585.846
577.534
569.223
560.911
552.599
544.287
535.976
527.664
519.352
511.04
502.729
494.417
486.105
477.793
469.481
461.17
452.858
444.546
436.235
427.923
419.611
411.299
402.988
394.676
386.364
378.053
369.741
361.429
353.118
344.806
336.494
328.183
319.871
311.559
303.248
294.936
286.625
278.313
270.001
261.69
253.378
245.067
236.755
228.444
220.132
211.821
203.509
195.198
186.887
178.575
170.264
161.952
153.641
145.33
137.018
128.707
120.396
112.084
103.773
95.4617
87.1504
78.8391
70.5279
62.2167
53.9056
45.5947
37.2847
28.9763
20.6719
12.3777
4.08506
835.242
819.735
813.36
802.201
794.683
785.315
777.365
768.673
760.525
752.076
743.835
735.472
727.189
718.858
710.558
702.239
693.932
685.618
677.308
668.995
660.684
652.372
644.061
635.749
627.437
619.125
610.814
602.502
594.19
585.879
577.567
569.255
560.943
552.632
544.32
536.008
527.696
519.385
511.073
502.761
494.449
486.137
477.826
469.514
461.202
452.89
444.579
436.267
427.955
419.643
411.332
403.02
394.708
386.397
378.085
369.773
361.462
353.15
344.838
336.527
328.215
319.903
311.592
303.28
294.968
286.657
278.345
270.034
261.722
253.411
245.099
236.788
228.476
220.165
211.853
203.542
195.23
186.919
178.607
170.296
161.985
153.673
145.362
137.051
128.739
120.428
112.117
103.805
95.494
87.1827
78.8714
70.5602
62.249
53.9379
45.627
37.317
29.0086
20.7042
12.4098
4.1164
835.223
819.784
813.393
802.231
794.714
785.344
777.395
768.702
760.555
752.105
743.865
735.502
727.219
718.888
710.588
702.269
693.962
685.647
677.337
669.025
660.714
652.402
644.09
635.778
627.467
619.155
610.843
602.532
594.22
585.908
577.596
569.285
560.973
552.661
544.349
536.038
527.726
519.414
511.102
502.791
494.479
486.167
477.855
469.543
461.232
452.92
444.608
436.296
427.985
419.673
411.361
403.05
394.738
386.426
378.115
369.803
361.491
353.18
344.868
336.556
328.245
319.933
311.621
303.31
294.998
286.686
278.375
270.063
261.752
253.44
245.129
236.817
228.506
220.194
211.883
203.571
195.26
186.949
178.637
170.326
162.014
153.703
145.392
137.08
128.769
120.458
112.146
103.835
95.5236
87.2123
78.9011
70.5899
62.2786
53.9676
45.6566
37.3466
29.0382
20.734
12.4393
4.14529
835.206
819.827
813.423
802.258
794.743
785.371
777.422
768.729
760.582
752.132
743.892
735.528
727.246
718.915
710.615
702.296
693.989
685.674
677.364
669.052
660.741
652.429
644.117
635.805
627.494
619.182
610.87
602.559
594.247
585.935
577.623
569.312
561
552.688
544.376
536.065
527.753
519.441
511.129
502.818
494.506
486.194
477.882
469.57
461.259
452.947
444.635
436.323
428.012
419.7
411.388
403.077
394.765
386.453
378.142
369.83
361.518
353.207
344.895
336.583
328.272
319.96
311.648
303.337
295.025
286.713
278.402
270.09
261.779
253.467
245.156
236.844
228.533
220.221
211.91
203.598
195.287
186.976
178.664
170.353
162.041
153.73
145.419
137.107
128.796
120.485
112.173
103.862
95.5506
87.2393
78.928
70.6168
62.3056
53.9946
45.6836
37.3736
29.0652
20.761
12.4661
4.17165
835.191
819.865
813.45
802.283
794.768
785.395
777.447
768.753
760.606
752.156
743.916
735.553
727.27
718.939
710.639
702.32
694.013
685.699
677.389
669.076
660.765
652.453
644.142
635.83
627.518
619.206
610.895
602.583
594.271
585.959
577.648
569.336
561.024
552.712
544.401
536.089
527.777
519.465
511.154
502.842
494.53
486.218
477.907
469.595
461.283
452.971
444.659
436.348
428.036
419.724
411.413
403.101
394.789
386.478
378.166
369.854
361.543
353.231
344.919
336.608
328.296
319.984
311.673
303.361
295.049
286.738
278.426
270.115
261.803
253.492
245.18
236.869
228.557
220.246
211.934
203.623
195.311
187
178.688
170.377
162.066
153.754
145.443
137.131
128.82
120.509
112.198
103.886
95.5749
87.2636
78.9523
70.6411
62.3299
54.0188
45.7079
37.3979
29.0894
20.7854
12.4903
4.19544
835.178
819.899
813.474
802.304
794.791
785.416
777.469
768.774
760.628
752.178
743.937
735.574
727.292
718.961
710.661
702.342
694.035
685.72
677.41
669.098
660.787
652.474
644.163
635.851
627.54
619.228
610.916
602.605
594.293
585.981
577.669
569.358
561.046
552.734
544.422
536.111
527.799
519.487
511.175
502.863
494.552
486.24
477.928
469.616
461.305
452.993
444.681
436.369
428.058
419.746
411.434
403.123
394.811
386.499
378.187
369.876
361.564
353.252
344.941
336.629
328.317
320.006
311.694
303.383
295.071
286.759
278.448
270.136
261.825
253.513
245.202
236.89
228.579
220.267
211.956
203.644
195.333
187.021
178.71
170.399
162.087
153.776
145.464
137.153
128.842
120.53
112.219
103.908
95.5965
87.2852
78.9739
70.6627
62.3515
54.0404
45.7295
37.4195
29.111
20.8071
12.5118
4.21664
835.166
819.929
813.495
802.323
794.811
785.434
777.488
768.793
760.647
752.196
743.956
735.593
727.311
718.98
710.68
702.361
694.054
685.739
677.429
669.116
660.805
652.493
644.182
635.87
627.559
619.247
610.935
602.623
594.312
586
577.688
569.376
561.065
552.753
544.441
536.129
527.818
519.506
511.194
502.882
494.571
486.259
477.947
469.635
461.323
453.012
444.7
436.388
428.077
419.765
411.453
403.141
394.83
386.518
378.206
369.895
361.583
353.271
344.96
336.648
328.336
320.025
311.713
303.401
295.09
286.778
278.467
270.155
261.844
253.532
245.22
236.909
228.598
220.286
211.975
203.663
195.352
187.04
178.729
170.417
162.106
153.795
145.483
137.172
128.861
120.549
112.238
103.927
95.6154
87.3041
78.9928
70.6816
62.3704
54.0593
45.7484
37.4384
29.1298
20.8261
12.5306
4.23523
835.157
819.954
813.513
802.339
794.828
785.45
777.505
768.809
760.663
752.213
743.973
735.609
727.327
718.996
710.696
702.377
694.07
685.755
677.445
669.133
660.822
652.51
644.198
635.886
627.575
619.263
610.951
602.64
594.328
586.016
577.704
569.393
561.081
552.769
544.457
536.146
527.834
519.522
511.21
502.899
494.587
486.275
477.963
469.651
461.34
453.028
444.716
436.404
428.093
419.781
411.469
403.158
394.846
386.534
378.223
369.911
361.599
353.288
344.976
336.664
328.353
320.041
311.729
303.418
295.106
286.794
278.483
270.171
261.86
253.548
245.237
236.925
228.614
220.302
211.991
203.679
195.368
187.056
178.745
170.434
162.122
153.811
145.5
137.188
128.877
120.565
112.254
103.943
95.6316
87.3203
79.009
70.6978
62.3865
54.0755
45.7646
37.4546
29.146
20.8423
12.5467
4.2512
835.148
819.975
813.528
802.352
794.842
785.463
777.518
768.822
760.677
752.226
743.986
735.623
727.341
719.009
710.71
702.39
694.083
685.769
677.459
669.146
660.835
652.523
644.212
635.9
627.588
619.277
610.965
602.653
594.341
586.03
577.718
569.406
561.094
552.783
544.471
536.159
527.847
519.536
511.224
502.912
494.6
486.288
477.977
469.665
461.353
453.041
444.73
436.418
428.106
419.794
411.483
403.171
394.859
386.548
378.236
369.924
361.613
353.301
344.989
336.678
328.366
320.054
311.743
303.431
295.119
286.808
278.496
270.185
261.873
253.562
245.25
236.939
228.627
220.316
212.004
203.693
195.381
187.07
178.759
170.447
162.136
153.824
145.513
137.202
128.89
120.579
112.268
103.956
95.645
87.3338
79.0225
70.7113
62.4
54.089
45.778
37.4681
29.1594
20.8559
12.5601
4.26453
835.142
819.991
813.54
802.363
794.854
785.474
777.529
768.833
760.688
752.237
743.997
735.633
727.351
719.02
710.72
702.401
694.094
685.779
677.47
669.157
660.846
652.534
644.222
635.911
627.599
619.287
610.976
602.664
594.352
586.04
577.729
569.417
561.105
552.793
544.482
536.17
527.858
519.546
511.235
502.923
494.611
486.299
477.987
469.676
461.364
453.052
444.74
436.429
428.117
419.805
411.494
403.182
394.87
386.559
378.247
369.935
361.623
353.312
345
336.688
328.377
320.065
311.754
303.442
295.13
286.819
278.507
270.196
261.884
253.572
245.261
236.949
228.638
220.327
212.015
203.704
195.392
187.081
178.769
170.458
162.147
153.835
145.524
137.212
128.901
120.59
112.278
103.967
95.6558
87.3446
79.0333
70.7221
62.4108
54.0998
45.7888
37.4788
29.1702
20.8668
12.5709
4.2752
835.137
820.004
813.549
802.371
794.862
785.482
777.538
768.841
760.696
752.245
744.005
735.642
727.36
719.028
710.728
702.409
694.102
685.788
677.478
669.165
660.854
652.542
644.231
635.919
627.607
619.295
610.984
602.672
594.36
586.049
577.737
569.425
561.113
552.801
544.49
536.178
527.866
519.555
511.243
502.931
494.619
486.307
477.996
469.684
461.372
453.06
444.749
436.437
428.125
419.813
411.502
403.19
394.878
386.567
378.255
369.943
361.632
353.32
345.008
336.697
328.385
320.073
311.762
303.45
295.138
286.827
278.515
270.204
261.892
253.581
245.269
236.958
228.646
220.335
212.023
203.712
195.4
187.089
178.777
170.466
162.155
153.843
145.532
137.221
128.909
120.598
112.287
103.975
95.6639
87.3527
79.0414
70.7302
62.4189
54.1079
45.7969
37.4869
29.1783
20.8749
12.579
4.28322
835.134
820.012
813.555
802.376
794.868
785.487
777.543
768.846
760.701
752.25
744.01
735.647
727.365
719.033
710.734
702.414
694.108
685.793
677.483
669.17
660.859
652.547
644.236
635.924
627.613
619.301
610.989
602.677
594.366
586.054
577.742
569.43
561.119
552.807
544.495
536.183
527.872
519.56
511.248
502.936
494.625
486.313
478.001
469.689
461.377
453.066
444.754
436.442
428.13
419.819
411.507
403.195
394.884
386.572
378.26
369.949
361.637
353.325
345.014
336.702
328.39
320.079
311.767
303.455
295.144
286.832
278.521
270.209
261.897
253.586
245.274
236.963
228.651
220.34
212.029
203.717
195.406
187.094
178.783
170.471
162.16
153.849
145.537
137.226
128.915
120.603
112.292
103.981
95.6693
87.3581
79.0468
70.7356
62.4243
54.1133
45.8023
37.4923
29.1837
20.8803
12.5843
4.28856
835.132
820.016
813.558
802.379
794.871
785.49
777.546
768.849
760.704
752.253
744.013
735.65
727.368
719.036
710.737
702.417
694.11
685.796
677.486
669.173
660.862
652.55
644.239
635.927
627.615
619.304
610.992
602.68
594.368
586.057
577.745
569.433
561.121
552.81
544.498
536.186
527.874
519.563
511.251
502.939
494.627
486.315
478.004
469.692
461.38
453.068
444.757
436.445
428.133
419.821
411.51
403.198
394.886
386.575
378.263
369.951
361.64
353.328
345.016
336.705
328.393
320.081
311.77
303.458
295.146
286.835
278.523
270.212
261.9
253.589
245.277
236.966
228.654
220.343
212.031
203.72
195.408
187.097
178.786
170.474
162.163
153.851
145.54
137.229
128.917
120.606
112.295
103.983
95.672
87.3608
79.0495
70.7383
62.427
54.116
45.805
37.495
29.1864
20.883
12.587
4.29124
835.132
820.016
813.558
802.379
794.871
785.49
777.546
768.849
760.704
752.253
744.013
735.65
727.368
719.036
710.737
702.417
694.11
685.796
677.486
669.173
660.862
652.55
644.239
635.927
627.615
619.304
610.992
602.68
594.368
586.057
577.745
569.433
561.121
552.81
544.498
536.186
527.874
519.563
511.251
502.939
494.627
486.315
478.004
469.692
461.38
453.068
444.757
436.445
428.133
419.821
411.51
403.198
394.886
386.575
378.263
369.951
361.64
353.328
345.016
336.705
328.393
320.081
311.77
303.458
295.146
286.835
278.523
270.212
261.9
253.589
245.277
236.966
228.654
220.343
212.031
203.72
195.408
187.097
178.786
170.474
162.163
153.851
145.54
137.229
128.917
120.606
112.295
103.983
95.672
87.3608
79.0495
70.7383
62.427
54.116
45.805
37.495
29.1864
20.883
12.587
4.29124
835.134
820.012
813.555
802.376
794.868
785.487
777.543
768.846
760.701
752.25
744.01
735.647
727.365
719.033
710.734
702.414
694.108
685.793
677.483
669.17
660.859
652.547
644.236
635.924
627.613
619.301
610.989
602.677
594.366
586.054
577.742
569.43
561.119
552.807
544.495
536.183
527.872
519.56
511.248
502.936
494.625
486.313
478.001
469.689
461.377
453.066
444.754
436.442
428.13
419.819
411.507
403.195
394.884
386.572
378.26
369.949
361.637
353.325
345.014
336.702
328.39
320.079
311.767
303.455
295.144
286.832
278.521
270.209
261.897
253.586
245.274
236.963
228.651
220.34
212.029
203.717
195.406
187.094
178.783
170.471
162.16
153.849
145.537
137.226
128.915
120.603
112.292
103.981
95.6693
87.3581
79.0468
70.7356
62.4243
54.1133
45.8023
37.4923
29.1837
20.8803
12.5843
4.28856
835.137
820.004
813.549
802.371
794.862
785.482
777.538
768.841
760.696
752.245
744.005
735.641
727.36
719.028
710.728
702.409
694.102
685.788
677.478
669.165
660.854
652.542
644.231
635.919
627.607
619.295
610.984
602.672
594.36
586.049
577.737
569.425
561.113
552.802
544.49
536.178
527.866
519.554
511.243
502.931
494.619
486.307
477.996
469.684
461.372
453.06
444.749
436.437
428.125
419.813
411.502
403.19
394.878
386.567
378.255
369.943
361.632
353.32
345.008
336.697
328.385
320.073
311.762
303.45
295.138
286.827
278.515
270.204
261.892
253.581
245.269
236.958
228.646
220.335
212.023
203.712
195.4
187.089
178.777
170.466
162.155
153.843
145.532
137.221
128.909
120.598
112.287
103.975
95.6639
87.3527
79.0414
70.7302
62.4189
54.1079
45.7969
37.4869
29.1783
20.8749
12.579
4.28322
835.142
819.991
813.54
802.363
794.854
785.474
777.529
768.833
760.688
752.237
743.997
735.633
727.351
719.02
710.72
702.401
694.094
685.779
677.47
669.157
660.846
652.534
644.222
635.911
627.599
619.287
610.976
602.664
594.352
586.04
577.729
569.417
561.105
552.793
544.482
536.17
527.858
519.546
511.235
502.923
494.611
486.299
477.987
469.676
461.364
453.052
444.74
436.429
428.117
419.805
411.494
403.182
394.87
386.559
378.247
369.935
361.623
353.312
345
336.688
328.377
320.065
311.754
303.442
295.13
286.819
278.507
270.196
261.884
253.572
245.261
236.949
228.638
220.327
212.015
203.704
195.392
187.081
178.769
170.458
162.147
153.835
145.524
137.212
128.901
120.59
112.278
103.967
95.6558
87.3446
79.0333
70.7221
62.4108
54.0998
45.7888
37.4788
29.1702
20.8668
12.5709
4.2752
835.148
819.975
813.528
802.352
794.842
785.463
777.518
768.822
760.677
752.226
743.986
735.623
727.341
719.009
710.71
702.39
694.083
685.769
677.459
669.146
660.835
652.523
644.212
635.9
627.588
619.277
610.965
602.653
594.341
586.03
577.718
569.406
561.094
552.783
544.471
536.159
527.847
519.536
511.224
502.912
494.6
486.288
477.977
469.665
461.353
453.041
444.73
436.418
428.106
419.794
411.483
403.171
394.859
386.548
378.236
369.924
361.613
353.301
344.989
336.678
328.366
320.054
311.743
303.431
295.119
286.808
278.496
270.185
261.873
253.562
245.25
236.939
228.627
220.316
212.004
203.693
195.381
187.07
178.759
170.447
162.136
153.824
145.513
137.202
128.89
120.579
112.268
103.956
95.645
87.3338
79.0225
70.7113
62.4
54.089
45.778
37.468
29.1594
20.8559
12.5601
4.26453
835.157
819.954
813.513
802.339
794.828
785.45
777.505
768.809
760.663
752.213
743.973
735.609
727.327
718.996
710.696
702.377
694.07
685.755
677.445
669.133
660.822
652.51
644.198
635.886
627.575
619.263
610.951
602.64
594.328
586.016
577.704
569.393
561.081
552.769
544.457
536.146
527.834
519.522
511.21
502.899
494.587
486.275
477.963
469.651
461.34
453.028
444.716
436.404
428.093
419.781
411.469
403.158
394.846
386.534
378.223
369.911
361.599
353.288
344.976
336.664
328.353
320.041
311.729
303.418
295.106
286.794
278.483
270.171
261.86
253.548
245.237
236.925
228.614
220.302
211.991
203.679
195.368
187.056
178.745
170.434
162.122
153.811
145.5
137.188
128.877
120.566
112.254
103.943
95.6316
87.3203
79.009
70.6978
62.3865
54.0755
45.7645
37.4546
29.146
20.8423
12.5467
4.2512
835.166
819.929
813.495
802.323
794.811
785.434
777.488
768.793
760.647
752.196
743.956
735.593
727.311
718.98
710.68
702.361
694.054
685.739
677.429
669.116
660.805
652.493
644.182
635.87
627.559
619.247
610.935
602.623
594.312
586
577.688
569.376
561.065
552.753
544.441
536.129
527.818
519.506
511.194
502.882
494.571
486.259
477.947
469.635
461.323
453.012
444.7
436.388
428.077
419.765
411.453
403.141
394.83
386.518
378.206
369.895
361.583
353.271
344.96
336.648
328.336
320.025
311.713
303.401
295.09
286.778
278.467
270.155
261.844
253.532
245.22
236.909
228.598
220.286
211.975
203.663
195.352
187.04
178.729
170.417
162.106
153.795
145.483
137.172
128.861
120.549
112.238
103.927
95.6154
87.3041
78.9928
70.6816
62.3704
54.0593
45.7484
37.4384
29.1298
20.8261
12.5306
4.23524
835.178
819.899
813.474
802.304
794.791
785.416
777.469
768.774
760.628
752.178
743.937
735.574
727.292
718.961
710.661
702.342
694.035
685.72
677.41
669.098
660.787
652.474
644.163
635.851
627.54
619.228
610.916
602.605
594.293
585.981
577.669
569.358
561.046
552.734
544.422
536.111
527.799
519.487
511.175
502.863
494.552
486.24
477.928
469.616
461.305
452.993
444.681
436.369
428.058
419.746
411.434
403.123
394.811
386.499
378.188
369.876
361.564
353.252
344.941
336.629
328.317
320.006
311.694
303.383
295.071
286.759
278.448
270.136
261.825
253.513
245.202
236.89
228.579
220.267
211.956
203.644
195.333
187.021
178.71
170.399
162.087
153.776
145.464
137.153
128.842
120.53
112.219
103.908
95.5965
87.2852
78.9739
70.6627
62.3515
54.0404
45.7295
37.4195
29.111
20.8071
12.5118
4.21664
835.191
819.865
813.45
802.283
794.768
785.395
777.447
768.753
760.606
752.156
743.916
735.553
727.27
718.939
710.639
702.32
694.013
685.699
677.389
669.076
660.765
652.453
644.142
635.83
627.518
619.206
610.895
602.583
594.271
585.959
577.648
569.336
561.024
552.712
544.401
536.089
527.777
519.465
511.154
502.842
494.53
486.218
477.907
469.595
461.283
452.971
444.659
436.348
428.036
419.724
411.413
403.101
394.789
386.478
378.166
369.854
361.543
353.231
344.919
336.607
328.296
319.984
311.673
303.361
295.049
286.738
278.426
270.115
261.803
253.492
245.18
236.869
228.557
220.246
211.934
203.623
195.311
187
178.688
170.377
162.066
153.754
145.443
137.132
128.82
120.509
112.198
103.886
95.5749
87.2636
78.9523
70.6411
62.3299
54.0188
45.7079
37.3979
29.0894
20.7854
12.4903
4.19545
835.206
819.827
813.423
802.258
794.743
785.371
777.422
768.729
760.582
752.132
743.892
735.528
727.246
718.915
710.615
702.296
693.989
685.674
677.364
669.052
660.741
652.429
644.117
635.805
627.494
619.182
610.87
602.559
594.247
585.935
577.623
569.312
561
552.688
544.376
536.065
527.753
519.441
511.129
502.818
494.506
486.194
477.882
469.57
461.259
452.947
444.635
436.323
428.012
419.7
411.388
403.077
394.765
386.453
378.142
369.83
361.518
353.207
344.895
336.583
328.272
319.96
311.648
303.337
295.025
286.713
278.402
270.09
261.779
253.467
245.156
236.844
228.533
220.221
211.91
203.598
195.287
186.976
178.664
170.353
162.041
153.73
145.419
137.107
128.796
120.485
112.173
103.862
95.5506
87.2393
78.928
70.6168
62.3056
53.9945
45.6836
37.3736
29.0651
20.761
12.4661
4.17166
835.223
819.784
813.393
802.231
794.714
785.344
777.395
768.702
760.555
752.105
743.865
735.502
727.219
718.888
710.588
702.269
693.962
685.647
677.337
669.025
660.714
652.402
644.09
635.778
627.467
619.155
610.843
602.532
594.22
585.908
577.596
569.285
560.973
552.661
544.349
536.038
527.726
519.414
511.102
502.791
494.479
486.167
477.855
469.544
461.232
452.92
444.608
436.296
427.985
419.673
411.361
403.05
394.738
386.426
378.115
369.803
361.491
353.18
344.868
336.556
328.245
319.933
311.621
303.31
294.998
286.686
278.375
270.063
261.752
253.44
245.129
236.817
228.506
220.194
211.883
203.571
195.26
186.949
178.637
170.326
162.014
153.703
145.392
137.08
128.769
120.458
112.146
103.835
95.5236
87.2123
78.9011
70.5899
62.2786
53.9676
45.6566
37.3466
29.0382
20.734
12.4393
4.1453
835.242
819.735
813.36
802.201
794.683
785.315
777.365
768.673
760.525
752.076
743.835
735.472
727.189
718.858
710.558
702.239
693.932
685.618
677.308
668.995
660.684
652.372
644.061
635.749
627.437
619.125
610.814
602.502
594.19
585.879
577.567
569.255
560.943
552.632
544.32
536.008
527.696
519.385
511.073
502.761
494.449
486.137
477.826
469.514
461.202
452.89
444.579
436.267
427.955
419.643
411.332
403.02
394.708
386.397
378.085
369.773
361.462
353.15
344.838
336.527
328.215
319.903
311.592
303.28
294.968
286.657
278.345
270.034
261.722
253.411
245.099
236.788
228.476
220.165
211.853
203.542
195.23
186.919
178.607
170.296
161.985
153.673
145.362
137.051
128.739
120.428
112.117
103.805
95.494
87.1827
78.8714
70.5602
62.2489
53.9379
45.627
37.317
29.0086
20.7042
12.4098
4.1164
835.263
819.682
813.324
802.168
794.649
785.283
777.332
768.641
760.493
752.044
743.802
735.44
727.157
718.826
710.526
702.207
693.9
685.585
677.276
668.963
660.652
652.34
644.028
635.716
627.405
619.093
610.781
602.47
594.158
585.846
577.534
569.223
560.911
552.599
544.287
535.976
527.664
519.352
511.04
502.729
494.417
486.105
477.793
469.482
461.17
452.858
444.546
436.235
427.923
419.611
411.299
402.988
394.676
386.364
378.053
369.741
361.429
353.118
344.806
336.494
328.183
319.871
311.559
303.248
294.936
286.625
278.313
270.001
261.69
253.378
245.067
236.755
228.444
220.132
211.821
203.509
195.198
186.887
178.575
170.264
161.952
153.641
145.33
137.018
128.707
120.396
112.084
103.773
95.4617
87.1504
78.8391
70.5279
62.2167
53.9056
45.5947
37.2847
28.9763
20.6719
12.3777
4.08507
835.287
819.624
813.285
802.133
794.613
785.248
777.297
768.606
760.458
752.009
743.768
735.405
727.123
718.791
710.491
702.172
693.865
685.551
677.241
668.928
660.617
652.305
643.994
635.682
627.37
619.058
610.747
602.435
594.123
585.812
577.5
569.188
560.876
552.565
544.253
535.941
527.629
519.318
511.006
502.694
494.382
486.07
477.759
469.447
461.135
452.823
444.512
436.2
427.888
419.576
411.265
402.953
394.641
386.33
378.018
369.706
361.395
353.083
344.771
336.46
328.148
319.836
311.525
303.213
294.901
286.59
278.278
269.967
261.655
253.344
245.032
236.721
228.409
220.098
211.786
203.475
195.163
186.852
178.541
170.229
161.918
153.606
145.295
136.984
128.672
120.361
112.05
103.738
95.427
87.1157
78.8044
70.4932
62.182
53.8709
45.56
37.25
28.9417
20.6371
12.3432
4.05151
835.315
819.561
813.244
802.095
794.574
785.212
777.259
768.57
760.421
751.972
743.731
735.368
727.086
718.755
710.455
702.136
693.829
685.514
677.204
668.891
660.58
652.268
643.957
635.645
627.334
619.022
610.71
602.398
594.087
585.775
577.463
569.151
560.84
552.528
544.216
535.904
527.593
519.281
510.969
502.657
494.346
486.034
477.722
469.41
461.098
452.787
444.475
436.163
427.851
419.54
411.228
402.916
394.605
386.293
377.981
369.67
361.358
353.046
344.735
336.423
328.111
319.8
311.488
303.176
294.865
286.553
278.242
269.93
261.618
253.307
244.995
236.684
228.372
220.061
211.75
203.438
195.127
186.815
178.504
170.192
161.881
153.57
145.258
136.947
128.636
120.324
112.013
103.702
95.3903
87.079
78.7678
70.4565
62.1453
53.8343
45.5234
37.2133
28.905
20.6004
12.3066
4.01601
835.344
819.493
813.201
802.055
794.534
785.173
777.22
768.531
760.382
751.934
743.693
735.33
727.047
718.716
710.416
702.097
693.79
685.475
677.166
668.853
660.542
652.23
643.918
635.607
627.295
618.983
610.672
602.36
594.048
585.736
577.425
569.113
560.801
552.489
544.178
535.866
527.554
519.242
510.931
502.619
494.307
485.995
477.683
469.372
461.06
452.748
444.436
436.125
427.813
419.501
411.19
402.878
394.566
386.255
377.943
369.631
361.319
353.008
344.696
336.384
328.073
319.761
311.45
303.138
294.826
286.515
278.203
269.892
261.58
253.268
244.957
236.645
228.334
220.023
211.711
203.4
195.088
186.777
178.465
170.154
161.843
153.531
145.22
136.908
128.597
120.286
111.974
103.663
95.3518
87.0406
78.7293
70.4181
62.1068
53.7958
45.4849
37.1749
28.8666
20.5619
12.2684
3.97896
835.375
819.425
813.16
802.017
794.496
785.137
777.183
768.495
760.346
751.898
743.656
735.294
727.011
718.68
710.38
702.061
693.754
685.439
677.129
668.816
660.506
652.193
643.882
635.57
627.259
618.947
610.635
602.323
594.012
585.7
577.388
569.076
560.765
552.453
544.141
535.829
527.518
519.206
510.894
502.582
494.271
485.959
477.647
469.335
461.024
452.712
444.4
436.088
427.777
419.465
411.153
402.841
394.53
386.218
377.906
369.595
361.283
352.971
344.66
336.348
328.036
319.725
311.413
303.101
294.79
286.478
278.167
269.855
261.544
253.232
244.92
236.609
228.298
219.986
211.675
203.363
195.052
186.74
178.429
170.118
161.806
153.495
145.183
136.872
128.561
120.249
111.938
103.627
95.3154
87.0041
78.6928
70.3816
62.0704
53.7593
45.4484
37.1384
28.8302
20.5254
12.2323
3.94479
835.495
819.39
813.145