/*--------------------------------*- C++ -*----------------------------------*\
| =========                 |                                                 |
| \\      /  F ield         | OpenFOAM: The Open Source CFD Toolbox           |
|  \\    /   O peration     | Version:  v1906                                 |
|   \\  /    A nd           | Web:      www.OpenFOAM.com                      |
|    \\/     M anipulation  |                                                 |
\*---------------------------------------------------------------------------*/
FoamFile
{
    version     2.0;
    format      ascii;
    class       volScalarField;
    location    "0.5";
    object      pB;
}
// * * * * * * * * * * * * * * * * * * * * * * * * * * * * * * * * * * * * * //

dimensions      [1 1 -3 0 0 -1 0];


internalField   nonuniform List<scalar> 
4000
(
21.1159
47.8236
60.9944
63.9208
61.1917
54.9866
47.4064
39.5774
32.2331
25.7108
20.1489
15.5433
11.8194
8.86494
6.55788
4.77971
3.42402
2.39964
1.6312
1.05824
0.633217
0.319164
0.0878114
-0.0822523
-0.207032
-0.298459
-0.365372
-0.41428
-0.450016
-0.4761
-0.495137
-0.509012
-0.51913
-0.526486
-0.531841
-0.535724
-0.538545
-0.540579
-0.542054
-0.543104
-0.543862
-0.544391
-0.544764
-0.545019
-0.545195
-0.545308
-0.545381
-0.545416
-0.545437
-0.545431
-0.545423
-0.545398
-0.545374
-0.545338
-0.545306
-0.545264
-0.545225
-0.545177
-0.545135
-0.545085
-0.545041
-0.544986
-0.544939
-0.544882
-0.544832
-0.544772
-0.544722
-0.544659
-0.544603
-0.544529
-0.544454
-0.544349
-0.544227
-0.544057
-0.543843
-0.543551
-0.543168
-0.542649
-0.541958
-0.541019
-0.539755
-0.538035
-0.535706
-0.532539
-0.528255
-0.522463
-0.514691
-0.504325
-0.490673
-0.472981
-0.450621
-0.423377
-0.392095
-0.359677
-0.332819
-0.323684
-0.349592
-0.422026
-0.503952
-0.426145
23.3861
48.0194
60.4742
63.3514
60.6615
54.5544
47.064
39.3159
32.0376
25.5693
20.0502
15.4782
11.78
8.84514
6.55273
4.78541
3.43767
2.41907
1.65485
1.08496
0.662153
0.349715
0.119537
-0.049669
-0.173824
-0.264791
-0.331368
-0.38003
-0.415586
-0.441538
-0.460478
-0.474282
-0.484348
-0.491667
-0.496996
-0.500858
-0.503664
-0.505687
-0.507154
-0.508198
-0.508951
-0.509477
-0.509849
-0.510101
-0.510277
-0.510388
-0.510462
-0.510496
-0.510516
-0.51051
-0.510501
-0.510476
-0.510452
-0.510415
-0.510384
-0.510341
-0.510303
-0.510254
-0.510212
-0.510162
-0.510118
-0.510064
-0.510017
-0.50996
-0.509911
-0.509851
-0.509801
-0.509739
-0.509683
-0.509609
-0.509533
-0.509429
-0.509307
-0.509138
-0.508924
-0.508633
-0.508252
-0.507736
-0.507048
-0.506113
-0.504855
-0.503143
-0.500825
-0.497674
-0.493411
-0.48765
-0.479921
-0.469617
-0.456058
-0.438503
-0.416341
-0.389378
-0.358459
-0.326428
-0.299728
-0.289745
-0.311853
-0.373378
-0.434892
-0.351751
24.8281
48.1393
59.7417
62.4901
59.8274
53.845
46.4844
38.8601
31.6879
25.3091
19.8631
15.3498
11.6976
8.79835
6.5331
4.78626
3.45376
2.44644
1.69055
1.12678
0.708459
0.399305
0.17153
0.00408718
-0.118778
-0.208795
-0.274679
-0.322831
-0.358015
-0.383692
-0.402433
-0.41609
-0.42605
-0.433291
-0.438563
-0.442384
-0.44516
-0.44716
-0.448611
-0.449642
-0.450387
-0.450905
-0.451274
-0.451522
-0.451697
-0.451805
-0.451878
-0.451911
-0.45193
-0.451923
-0.451914
-0.451888
-0.451865
-0.451827
-0.451796
-0.451752
-0.451714
-0.451665
-0.451623
-0.451572
-0.451529
-0.451474
-0.451428
-0.451372
-0.451323
-0.451265
-0.451215
-0.451154
-0.451097
-0.451024
-0.450948
-0.450844
-0.450722
-0.450554
-0.450342
-0.450053
-0.449676
-0.449165
-0.448484
-0.447559
-0.446314
-0.444619
-0.442324
-0.439204
-0.434985
-0.429284
-0.42164
-0.411456
-0.398066
-0.380751
-0.358924
-0.332402
-0.302009
-0.270445
-0.24369
-0.231868
-0.247643
-0.293307
-0.32989
-0.239702
25.0824
47.8534
58.6642
61.232
58.5976
52.7736
45.5909
38.1406
31.1218
24.8741
19.5364
15.1107
11.528
8.6827
6.45894
4.74354
3.43462
2.44484
1.70195
1.14777
0.736495
0.432517
0.20854
0.0438852
-0.0769371
-0.165453
-0.230237
-0.277584
-0.312177
-0.337423
-0.355847
-0.369273
-0.379064
-0.386181
-0.391365
-0.39512
-0.397848
-0.399813
-0.401238
-0.402251
-0.402981
-0.403489
-0.403851
-0.404094
-0.404264
-0.404369
-0.404441
-0.404472
-0.404491
-0.404483
-0.404473
-0.404446
-0.404422
-0.404385
-0.404352
-0.404308
-0.404269
-0.40422
-0.404178
-0.404127
-0.404084
-0.40403
-0.403985
-0.403929
-0.403882
-0.403825
-0.403775
-0.403715
-0.403658
-0.403586
-0.403509
-0.403406
-0.403284
-0.403118
-0.402909
-0.402624
-0.402253
-0.40175
-0.40108
-0.40017
-0.398945
-0.397276
-0.395018
-0.391949
-0.387798
-0.382193
-0.37468
-0.36468
-0.351547
-0.334588
-0.313242
-0.287338
-0.257645
-0.226624
-0.199572
-0.184882
-0.191842
-0.217297
-0.225166
-0.124203
24.4696
47.0383
57.21
59.5845
56.9893
51.3536
44.3931
37.1638
30.3433
24.2666
19.0712
14.7612
11.2706
8.49742
6.32916
4.65598
3.37883
2.41279
1.68753
1.14638
0.744701
0.447782
0.22899
0.0681426
-0.0498875
-0.136354
-0.199637
-0.245883
-0.279671
-0.304327
-0.32232
-0.33543
-0.344991
-0.351941
-0.357003
-0.360669
-0.363331
-0.365249
-0.366638
-0.367625
-0.368337
-0.368831
-0.369184
-0.369419
-0.369584
-0.369685
-0.369754
-0.369784
-0.369801
-0.369792
-0.369781
-0.369754
-0.369729
-0.36969
-0.369657
-0.369612
-0.369573
-0.369523
-0.369481
-0.36943
-0.369387
-0.369333
-0.369289
-0.369235
-0.369188
-0.369133
-0.369085
-0.369025
-0.368969
-0.368897
-0.36882
-0.368718
-0.368598
-0.368434
-0.368228
-0.367949
-0.367586
-0.367093
-0.366439
-0.365549
-0.364351
-0.36272
-0.360512
-0.357511
-0.353455
-0.34798
-0.340646
-0.330892
-0.318098
-0.301604
-0.280876
-0.255746
-0.226898
-0.196471
-0.168897
-0.150519
-0.14693
-0.149782
-0.127404
-0.0165626
23.3559
45.7016
55.371
57.5663
55.0281
49.6093
42.9116
35.9471
29.3673
23.4995
18.479
14.3119
10.9353
8.25167
6.15254
4.53209
3.29473
2.35849
1.65542
1.13071
0.741154
0.453154
0.240917
0.0848846
-0.0296138
-0.11349
-0.174875
-0.219731
-0.2525
-0.27641
-0.293859
-0.306572
-0.315842
-0.322581
-0.327488
-0.331043
-0.333623
-0.33548
-0.336825
-0.33778
-0.338468
-0.338945
-0.339285
-0.339511
-0.33967
-0.339766
-0.339832
-0.33986
-0.339874
-0.339864
-0.339852
-0.339824
-0.339798
-0.339758
-0.339724
-0.339678
-0.339638
-0.339588
-0.339546
-0.339494
-0.339451
-0.339399
-0.339355
-0.339303
-0.339258
-0.339204
-0.339157
-0.339098
-0.339042
-0.338971
-0.338895
-0.338794
-0.338675
-0.338514
-0.338313
-0.338041
-0.337687
-0.337209
-0.336573
-0.335709
-0.334546
-0.332962
-0.330818
-0.327906
-0.323969
-0.318658
-0.311548
-0.302101
-0.289727
-0.273801
-0.253817
-0.229601
-0.201725
-0.17194
-0.143693
-0.121104
-0.106039
-0.0855361
-0.0331921
0.0828544
21.964
43.8973
53.1525
55.1938
52.7349
47.5608
41.1636
34.5045
28.2052
22.5823
17.7676
13.7691
10.5277
7.95031
5.93345
4.37589
3.18612
2.28559
1.60915
1.1042
0.729242
0.451985
0.247647
0.0974179
-0.0128226
-0.0935762
-0.152673
-0.195854
-0.227398
-0.250412
-0.267205
-0.279439
-0.288361
-0.294845
-0.299568
-0.302987
-0.305469
-0.307254
-0.308546
-0.309462
-0.310121
-0.310577
-0.310903
-0.311118
-0.311269
-0.31136
-0.311422
-0.311447
-0.311459
-0.311448
-0.311434
-0.311404
-0.311377
-0.311337
-0.311301
-0.311254
-0.311213
-0.311163
-0.31112
-0.311068
-0.311025
-0.310974
-0.310932
-0.310881
-0.310837
-0.310785
-0.310739
-0.310682
-0.310627
-0.310556
-0.310481
-0.310382
-0.310264
-0.310108
-0.309911
-0.309648
-0.309306
-0.308844
-0.308231
-0.307399
-0.306277
-0.304751
-0.302685
-0.299878
-0.296086
-0.290973
-0.284132
-0.275053
-0.263176
-0.247915
-0.228792
-0.205618
-0.178832
-0.149753
-0.120785
-0.0937901
-0.0670956
-0.0238271
0.0564399
0.171845
20.4206
41.6928
50.5708
52.4838
50.1285
45.2261
39.1641
32.8483
26.8666
21.5222
16.9427
13.1373
10.0509
7.59579
5.67378
4.18888
3.05419
2.19506
1.54955
1.06758
0.709604
0.444861
0.249729
0.106265
0.000989628
-0.0761227
-0.132552
-0.173781
-0.203897
-0.225868
-0.241899
-0.253577
-0.262093
-0.268282
-0.272789
-0.276052
-0.278419
-0.28012
-0.28135
-0.282222
-0.282848
-0.28328
-0.283588
-0.28379
-0.283933
-0.284018
-0.284075
-0.284096
-0.284106
-0.284093
-0.284078
-0.284047
-0.284018
-0.283977
-0.283939
-0.283892
-0.28385
-0.283799
-0.283755
-0.283703
-0.283661
-0.283611
-0.283569
-0.28352
-0.283478
-0.283428
-0.283383
-0.283328
-0.283273
-0.283204
-0.283129
-0.283032
-0.282917
-0.282765
-0.282575
-0.282321
-0.281993
-0.281551
-0.280964
-0.280168
-0.279096
-0.277636
-0.275661
-0.272978
-0.269355
-0.264473
-0.257945
-0.249292
-0.237988
-0.223485
-0.205331
-0.183318
-0.157738
-0.129459
-0.0998374
-0.0685714
-0.0308015
0.0334131
0.137937
0.247331
18.8004
39.1572
47.6514
49.456
47.228
42.6232
36.9288
30.9911
25.3613
20.3269
16.01
12.4207
9.5083
7.19051
5.37529
3.97235
2.89988
2.08761
1.47714
1.02123
0.682535
0.432013
0.247345
0.111573
0.011945
-0.0610263
-0.114422
-0.153433
-0.181927
-0.202713
-0.217879
-0.228927
-0.236982
-0.242836
-0.247099
-0.250184
-0.252421
-0.254027
-0.255187
-0.256008
-0.256597
-0.257002
-0.25729
-0.257479
-0.257612
-0.257689
-0.257741
-0.257759
-0.257766
-0.257751
-0.257733
-0.257701
-0.25767
-0.257628
-0.257589
-0.25754
-0.257497
-0.257445
-0.257401
-0.25735
-0.257307
-0.257258
-0.257219
-0.257171
-0.257131
-0.257083
-0.257039
-0.256985
-0.256932
-0.256864
-0.25679
-0.256695
-0.256583
-0.256436
-0.256253
-0.256011
-0.255698
-0.255278
-0.254722
-0.253966
-0.25295
-0.251567
-0.249696
-0.247155
-0.243724
-0.239103
-0.232931
-0.22476
-0.2141
-0.200441
-0.183357
-0.162617
-0.138362
-0.111015
-0.0809309
-0.0458519
0.00178648
0.0840328
0.20795
0.307182
17.1464
36.3538
44.4256
46.133
44.0539
39.7712
34.4739
28.9462
23.7
19.0047
14.9758
11.6243
8.90344
6.73722
5.04004
3.72783
2.72436
1.96411
1.39258
0.965657
0.648434
0.413756
0.240754
0.11356
0.020227
-0.048128
-0.098143
-0.134682
-0.161369
-0.180835
-0.195038
-0.205383
-0.212926
-0.218407
-0.222398
-0.225285
-0.227378
-0.228879
-0.229962
-0.230726
-0.231273
-0.231649
-0.231915
-0.232088
-0.23221
-0.232279
-0.232325
-0.232339
-0.232343
-0.232326
-0.232306
-0.232272
-0.23224
-0.232195
-0.232155
-0.232105
-0.232061
-0.232009
-0.231964
-0.231912
-0.231871
-0.231823
-0.231784
-0.231739
-0.231701
-0.231654
-0.231612
-0.231559
-0.231507
-0.231441
-0.231369
-0.231276
-0.231168
-0.231026
-0.230852
-0.230622
-0.230327
-0.229931
-0.229408
-0.228699
-0.227745
-0.226448
-0.224692
-0.22231
-0.219095
-0.214766
-0.20899
-0.201352
-0.1914
-0.178664
-0.162741
-0.143379
-0.120573
-0.0943319
-0.0641055
-0.0259702
0.0297678
0.126285
0.264028
0.350397
15.4821
33.3372
40.9275
42.5395
40.6277
36.6894
31.8163
26.7277
21.894
17.5646
13.8472
10.7532
8.24042
6.23898
4.67031
3.45704
2.5289
1.82551
1.29661
0.901429
0.607739
0.390438
0.230235
0.11245
0.0260258
-0.0372654
-0.0835728
-0.1174
-0.142106
-0.160125
-0.173272
-0.182848
-0.18983
-0.194903
-0.198596
-0.201267
-0.203201
-0.204587
-0.205585
-0.206288
-0.20679
-0.207133
-0.207375
-0.207531
-0.20764
-0.207701
-0.207741
-0.207751
-0.207751
-0.207731
-0.20771
-0.207674
-0.207639
-0.207593
-0.207551
-0.2075
-0.207454
-0.207402
-0.207357
-0.207305
-0.207264
-0.207218
-0.207181
-0.207137
-0.2071
-0.207056
-0.207015
-0.206964
-0.206913
-0.206848
-0.206778
-0.206688
-0.206584
-0.206449
-0.206284
-0.206068
-0.205791
-0.205422
-0.204936
-0.204278
-0.203393
-0.20219
-0.200562
-0.198355
-0.195376
-0.191369
-0.186025
-0.178967
-0.169782
-0.158039
-0.143362
-0.125479
-0.104253
-0.0793293
-0.0493947
-0.00921167
0.0524174
0.158869
0.304585
0.376799
13.8195
30.1526
37.1916
38.7018
36.9717
33.3982
28.9735
24.3504
19.9553
16.016
12.6317
9.81343
7.52362
5.69912
4.26863
3.16186
2.31492
1.67289
1.19001
0.829148
0.560912
0.362417
0.216069
0.108472
0.0295256
-0.0282848
-0.07058
-0.101474
-0.124036
-0.140491
-0.152496
-0.161239
-0.167615
-0.172247
-0.175618
-0.178054
-0.179818
-0.181079
-0.181986
-0.182623
-0.183076
-0.183384
-0.183601
-0.183738
-0.183834
-0.183886
-0.183919
-0.183924
-0.183921
-0.183898
-0.183874
-0.183836
-0.1838
-0.183752
-0.183708
-0.183655
-0.183609
-0.183555
-0.18351
-0.183459
-0.183419
-0.183373
-0.183338
-0.183296
-0.183261
-0.183218
-0.183179
-0.18313
-0.18308
-0.183017
-0.182949
-0.182863
-0.182763
-0.182634
-0.18248
-0.182278
-0.182023
-0.181682
-0.181236
-0.180633
-0.179823
-0.178721
-0.177233
-0.175215
-0.172494
-0.168833
-0.163957
-0.157521
-0.149156
-0.13847
-0.125117
-0.108808
-0.0892996
-0.0659401
-0.0368235
0.00420799
0.069215
0.180941
0.328812
0.386794
12.1641
26.8371
33.2514
34.647
33.1093
29.9181
25.9637
21.8295
17.8965
14.3691
11.337
8.81096
6.75778
5.12124
3.83772
2.84435
2.08396
1.50739
1.07367
0.749477
0.508457
0.330081
0.198558
0.101864
0.0309195
-0.0210266
-0.0590297
-0.0867857
-0.107055
-0.121837
-0.132622
-0.140476
-0.146204
-0.150364
-0.153391
-0.155577
-0.157159
-0.158287
-0.159097
-0.159662
-0.160064
-0.160335
-0.160524
-0.160642
-0.160724
-0.160766
-0.160791
-0.160791
-0.160784
-0.160759
-0.160732
-0.160692
-0.160654
-0.160604
-0.160558
-0.160504
-0.160456
-0.160402
-0.160357
-0.160306
-0.160266
-0.160223
-0.160188
-0.160148
-0.160115
-0.160074
-0.160037
-0.159989
-0.159941
-0.15988
-0.159814
-0.159731
-0.159636
-0.159516
-0.159371
-0.159186
-0.158952
-0.158643
-0.15824
-0.157695
-0.156965
-0.155973
-0.154635
-0.152819
-0.150373
-0.147083
-0.142705
-0.136931
-0.129433
-0.119864
-0.107904
-0.0932631
-0.0756124
-0.0540879
-0.0263799
0.0141776
0.0798814
0.192132
0.336611
0.381239
10.5181
23.42
29.1383
30.4022
29.0643
26.2706
22.8055
19.1808
15.7305
12.6343
9.97156
7.75234
5.94791
4.50921
3.38051
2.50673
1.8377
1.3303
0.948533
0.663136
0.450923
0.293849
0.17803
0.0928836
0.0304155
-0.0153198
-0.0487777
-0.0732116
-0.0910541
-0.104065
-0.113559
-0.120472
-0.125514
-0.129175
-0.131838
-0.13376
-0.135149
-0.136136
-0.136843
-0.137334
-0.137681
-0.137912
-0.138072
-0.13817
-0.138237
-0.138269
-0.138286
-0.138281
-0.138269
-0.138242
-0.138212
-0.13817
-0.138129
-0.138078
-0.13803
-0.137975
-0.137926
-0.137871
-0.137825
-0.137775
-0.137736
-0.137694
-0.137661
-0.137623
-0.137591
-0.137552
-0.137516
-0.13747
-0.137424
-0.137365
-0.137302
-0.137223
-0.137133
-0.13702
-0.136888
-0.136719
-0.136509
-0.136232
-0.135874
-0.135392
-0.134747
-0.133872
-0.132691
-0.131092
-0.128937
-0.12604
-0.122186
-0.11711
-0.110523
-0.102121
-0.0916196
-0.078732
-0.0630806
-0.0436745
-0.0179995
0.0207089
0.084394
0.192529
0.328514
0.361335
8.88169
19.9251
24.8816
25.9946
24.8607
22.4771
19.5178
16.4206
13.4708
10.8225
8.54404
6.64439
5.09934
3.86709
2.90013
2.15138
1.57794
1.14295
0.815627
0.570898
0.388899
0.254176
0.154835
0.0818088
0.0282361
-0.0109816
-0.0396703
-0.0606189
-0.0759158
-0.0870696
-0.0952091
-0.101136
-0.105459
-0.108596
-0.110878
-0.112522
-0.113709
-0.114549
-0.115148
-0.115561
-0.115851
-0.116041
-0.116171
-0.116247
-0.116298
-0.116319
-0.116329
-0.116317
-0.116302
-0.116271
-0.116239
-0.116195
-0.116152
-0.116098
-0.116049
-0.115992
-0.115942
-0.115887
-0.115841
-0.115792
-0.115753
-0.115712
-0.11568
-0.115644
-0.115614
-0.115577
-0.115543
-0.115499
-0.115454
-0.115398
-0.115337
-0.115262
-0.115178
-0.115074
-0.114954
-0.114802
-0.114617
-0.114375
-0.114064
-0.113647
-0.113092
-0.112339
-0.111325
-0.109951
-0.108102
-0.105617
-0.102313
-0.0979643
-0.0923255
-0.0851372
-0.0761513
-0.0650972
-0.0515816
-0.0345768
-0.01156
0.0239414
0.0829825
0.182652
0.305599
0.328554
7.25408
16.3713
20.5081
21.4507
20.523
18.5598
16.12
13.5654
11.1313
8.94507
7.06346
5.49423
4.2176
3.19919
2.39985
1.78079
1.30656
0.946784
0.676037
0.473588
0.323012
0.211541
0.129347
0.0689327
0.0246166
-0.00781943
-0.0315459
-0.0488688
-0.0615177
-0.0707399
-0.077471
-0.0823716
-0.0859472
-0.0885405
-0.0904259
-0.0917814
-0.0927579
-0.0934451
-0.0939326
-0.0942642
-0.0944947
-0.0946414
-0.0947407
-0.0947947
-0.0948295
-0.0948387
-0.0948401
-0.0948229
-0.0948031
-0.0947695
-0.0947348
-0.0946878
-0.0946422
-0.0945873
-0.094536
-0.0944783
-0.0944269
-0.0943711
-0.094325
-0.0942764
-0.0942389
-0.0941991
-0.0941686
-0.0941343
-0.0941057
-0.0940705
-0.0940375
-0.0939953
-0.0939524
-0.0938983
-0.0938407
-0.0937698
-0.0936924
-0.0935976
-0.09349
-0.0933567
-0.0931972
-0.0929911
-0.0927293
-0.0923805
-0.0919184
-0.0912928
-0.0904524
-0.0893146
-0.0877839
-0.0857268
-0.082994
-0.0793984
-0.0747399
-0.0688043
-0.0613829
-0.052234
-0.0409813
-0.0266464
-0.00688145
0.0241384
0.0761137
0.163404
0.269405
0.284575
5.63399
12.7737
16.0423
16.7965
16.0757
14.5409
12.6317
10.632
8.72595
7.01343
5.53909
4.30921
3.30844
2.50994
1.88311
1.39757
1.02557
0.743311
0.530903
0.372068
0.253919
0.166449
0.101957
0.0545631
0.0198033
-0.00563174
-0.0242358
-0.0378162
-0.0477323
-0.0549612
-0.0602391
-0.064081
-0.0668852
-0.0689169
-0.0703933
-0.071451
-0.0722106
-0.0727401
-0.0731125
-0.0733604
-0.0735299
-0.0736324
-0.0736997
-0.0737308
-0.0737488
-0.0737461
-0.0737389
-0.0737157
-0.0736913
-0.0736545
-0.0736171
-0.0735678
-0.0735199
-0.0734632
-0.0734102
-0.0733514
-0.073299
-0.0732429
-0.0731967
-0.0731488
-0.0731121
-0.0730737
-0.0730444
-0.0730117
-0.0729847
-0.0729512
-0.0729196
-0.0728792
-0.0728381
-0.0727865
-0.0727321
-0.0726659
-0.0725949
-0.0725098
-0.0724156
-0.0723013
-0.0721683
-0.0719991
-0.0717882
-0.0715097
-0.0711439
-0.0706499
-0.0699887
-0.0690944
-0.0678925
-0.0662768
-0.064132
-0.0613116
-0.0576599
-0.0530092
-0.0471938
-0.0400116
-0.0311342
-0.01971
-0.00372916
0.0216779
0.0644676
0.136022
0.221849
0.23124
4.01988
9.14465
11.5069
12.0574
11.5431
10.4427
9.07285
7.63764
6.26921
5.03942
3.98044
3.09686
2.37778
1.80395
1.35344
1.00444
0.737009
0.534093
0.38141
0.267239
0.182306
0.119425
0.0730708
0.0390193
0.0140517
-0.00420977
-0.0175655
-0.0273115
-0.0344282
-0.0396153
-0.0434046
-0.046162
-0.048176
-0.0496325
-0.0506898
-0.0514424
-0.0519799
-0.0523479
-0.0526025
-0.0527648
-0.0528719
-0.0529293
-0.0529639
-0.0529716
-0.0529723
-0.0529573
-0.0529413
-0.052912
-0.052883
-0.052843
-0.0528027
-0.0527512
-0.052701
-0.0526426
-0.0525881
-0.0525282
-0.052475
-0.0524186
-0.0523725
-0.0523252
-0.0522894
-0.0522522
-0.0522241
-0.052193
-0.0521674
-0.0521356
-0.0521054
-0.0520667
-0.0520274
-0.0519785
-0.0519275
-0.0518661
-0.051802
-0.0517268
-0.0516465
-0.0515517
-0.0514459
-0.0513146
-0.0511557
-0.0509493
-0.0506822
-0.0503232
-0.0498458
-0.0492009
-0.0483358
-0.0471722
-0.0456291
-0.0436007
-0.0409764
-0.0376359
-0.0334592
-0.0282935
-0.0218844
-0.0135722
-0.00181924
0.0170389
0.0489075
0.102021
0.165151
0.170511
2.41009
5.49458
6.92287
7.25795
6.94971
6.28784
5.46345
4.59952
3.77561
3.03501
2.39717
1.8649
1.43168
1.08592
0.814462
0.604176
0.443009
0.32074
0.228778
0.160027
0.108878
0.0710097
0.043108
0.0226303
0.0076248
-0.00333898
-0.0113557
-0.0172012
-0.0214704
-0.0245807
-0.0268559
-0.0285103
-0.0297204
-0.0305917
-0.0312228
-0.0316651
-0.0319766
-0.0321803
-0.0323152
-0.0323905
-0.0324343
-0.032446
-0.0324473
-0.0324313
-0.0324144
-0.0323868
-0.0323617
-0.0323263
-0.0322926
-0.0322492
-0.0322062
-0.0321524
-0.0321001
-0.0320401
-0.0319841
-0.0319233
-0.0318694
-0.0318129
-0.0317669
-0.0317204
-0.0316854
-0.0316494
-0.0316224
-0.0315928
-0.0315685
-0.0315382
-0.0315094
-0.0314724
-0.031435
-0.0313887
-0.0313412
-0.031285
-0.031228
-0.031163
-0.0310971
-0.0310222
-0.030944
-0.0308513
-0.0307454
-0.0306123
-0.0304456
-0.030224
-0.0299335
-0.0295425
-0.0290199
-0.0283159
-0.027384
-0.0261598
-0.0245777
-0.0225655
-0.0200513
-0.0169387
-0.0130674
-0.00801853
-0.000826995
0.0107828
0.0304438
0.063136
0.101761
0.104439
0.802904
1.83241
2.31017
2.4226
2.31988
2.09895
1.82367
1.53511
1.25984
1.01231
0.799088
0.621112
0.476258
0.360636
0.269882
0.199611
0.14573
0.104893
0.0742546
0.0513778
0.0343545
0.0217559
0.0124959
0.00573155
0.000790533
-0.00280068
-0.00542382
-0.00732895
-0.00872173
-0.00973415
-0.0104798
-0.0110197
-0.0114178
-0.0116978
-0.0118982
-0.0120269
-0.0121099
-0.0121477
-0.0121619
-0.0121494
-0.0121292
-0.0120948
-0.0120625
-0.0120225
-0.0119879
-0.0119475
-0.0119133
-0.0118717
-0.0118333
-0.0117865
-0.0117407
-0.0116847
-0.0116303
-0.0115689
-0.0115116
-0.0114499
-0.0113956
-0.0113391
-0.0112933
-0.0112475
-0.0112133
-0.0111785
-0.0111526
-0.0111244
-0.0111013
-0.0110724
-0.0110448
-0.0110094
-0.0109739
-0.0109304
-0.0108866
-0.0108357
-0.0107859
-0.0107315
-0.0106801
-0.0106255
-0.0105753
-0.0105215
-0.0104692
-0.01041
-0.0103449
-0.010262
-0.0101603
-0.0100256
-0.00984895
-0.00960916
-0.00929434
-0.0088814
-0.00835033
-0.00767733
-0.0068399
-0.00580278
-0.00451222
-0.00282051
-0.000397134
0.00353213
0.010195
0.0212579
0.0342928
0.0351395
-0.803408
-1.8337
-2.31201
-2.42469
-2.32211
-2.1013
-1.82624
-1.53808
-1.26334
-1.01651
-0.803947
-0.626624
-0.48227
-0.367072
-0.27657
-0.206388
-0.152644
-0.111783
-0.0808986
-0.0577499
-0.0405332
-0.0277775
-0.0183325
-0.0113372
-0.00617985
-0.00237373
0.0004148
0.0024633
0.0039566
0.00504905
0.00583823
0.00641667
0.00683361
0.00714709
0.00737911
0.00756519
0.00771139
0.00784021
0.00794716
0.0080477
0.00813189
0.00821254
0.00827853
0.0083427
0.00839501
0.00844827
0.00849171
0.00853961
0.00858274
0.00863298
0.00868158
0.00873965
0.00879589
0.00885857
0.00891701
0.00897935
0.00903404
0.00909042
0.00913582
0.00918088
0.00921441
0.00924803
0.00927298
0.00929999
0.00932197
0.00934959
0.00937588
0.0094097
0.00944335
0.00948415
0.00952419
0.00956962
0.00961186
0.00965562
0.00969233
0.00972646
0.00974855
0.00976318
0.00976173
0.00974672
0.00971001
0.00965378
0.00956618
0.00944384
0.00927352
0.00904778
0.00874367
0.00834294
0.00782015
0.00715044
0.00630645
0.00526077
0.00395629
0.00225923
-0.000155453
-0.00405274
-0.0106547
-0.0216272
-0.0345444
-0.03524
-2.41059
-5.49586
-6.92471
-7.26004
-6.95195
-6.29021
-5.46604
-4.60252
-3.77914
-3.03923
-2.40204
-1.87042
-1.43769
-1.09235
-0.821145
-0.610946
-0.449915
-0.32762
-0.235415
-0.166394
-0.115053
-0.0770289
-0.0489428
-0.0282351
-0.0130141
-0.00183615
0.00634541
0.0123341
0.0167037
0.019894
0.0222129
0.0239063
0.0251358
0.0260411
0.0267043
0.0272043
0.0275791
0.0278741
0.0281018
0.02829
0.028438
0.0285647
0.0286643
0.0287526
0.0288225
0.0288886
0.0289413
0.0289955
0.0290433
0.029097
0.0291484
0.0292084
0.0292664
0.0293302
0.0293895
0.0294524
0.0295073
0.0295633
0.0296083
0.0296527
0.0296855
0.0297181
0.0297421
0.029768
0.0297891
0.0298155
0.0298406
0.0298729
0.0299047
0.0299427
0.0299789
0.0300188
0.0300534
0.0300864
0.0301083
0.030122
0.030116
0.0300916
0.0300365
0.0299476
0.0298095
0.0296147
0.0293386
0.0289604
0.0284445
0.0277549
0.026834
0.0256222
0.0240486
0.0220401
0.0195198
0.0163992
0.0125146
0.00746098
0.000278616
-0.0112989
-0.0308992
-0.0635014
-0.102009
-0.104538
-4.02037
-9.14591
-11.5087
-12.0595
-11.5453
-10.4451
-9.07548
-7.64068
-6.27278
-5.04367
-3.98533
-3.1024
-2.3838
-1.81038
-1.36011
-1.0112
-0.743898
-0.540956
-0.388032
-0.273597
-0.188475
-0.125439
-0.078902
-0.0446223
-0.019441
-0.000966781
0.0125526
0.0224414
0.0296583
0.0349253
0.0387588
0.0415562
0.0435905
0.0450821
0.0461725
0.0469834
0.0475847
0.0480444
0.0483916
0.0486665
0.0488777
0.04905
0.0491828
0.0492951
0.0493826
0.0494613
0.0495232
0.0495836
0.0496361
0.0496933
0.0497473
0.0498092
0.0498688
0.0499335
0.0499936
0.0500568
0.0501116
0.0501673
0.0502118
0.0502553
0.0502876
0.0503192
0.0503424
0.0503674
0.0503876
0.050413
0.050437
0.0504678
0.0504978
0.050533
0.0505653
0.0505996
0.0506265
0.0506487
0.0506559
0.0506491
0.0506152
0.0505522
0.050444
0.050282
0.0500437
0.0497119
0.0492495
0.0486182
0.0477605
0.0466119
0.0450802
0.0430648
0.0404496
0.0371135
0.0329315
0.027759
0.0213378
0.013022
0.00127917
-0.0175463
-0.0493544
-0.102379
-0.165393
-0.170607
-5.63448
-12.7749
-16.0441
-16.7986
-16.0779
-14.5433
-12.6344
-10.6351
-8.72959
-7.01773
-5.54402
-4.31476
-3.31446
-2.51636
-1.88977
-1.40431
-1.03243
-0.750147
-0.537504
-0.378413
-0.26008
-0.172456
-0.107783
-0.0601635
-0.0251925
0.00045301
0.0192191
0.0329415
0.0429575
0.0502665
0.0555892
0.0594725
0.0622985
0.0643669
0.0658776
0.0669946
0.0678188
0.0684405
0.0689053
0.0692655
0.0695388
0.069756
0.0699216
0.0700575
0.0701621
0.0702533
0.0703243
0.0703909
0.070448
0.0705086
0.0705652
0.0706288
0.0706898
0.0707552
0.0708158
0.0708792
0.0709339
0.070989
0.0710329
0.0710757
0.0711073
0.0711381
0.0711607
0.0711848
0.0712043
0.0712288
0.0712519
0.0712812
0.0713094
0.0713418
0.0713702
0.0713989
0.0714181
0.0714295
0.071422
0.0713951
0.0713337
0.0712326
0.0710723
0.0708385
0.0705018
0.0700355
0.0693903
0.0685107
0.0673172
0.0657174
0.0635849
0.0607782
0.0571365
0.0524912
0.0466718
0.0394845
0.0305968
0.0191707
0.0032013
-0.0221724
-0.0649019
-0.136368
-0.222083
-0.231332
-7.25455
-16.3725
-20.5099
-21.4528
-20.5253
-18.5623
-16.1227
-13.5686
-11.135
-8.94943
-7.06844
-5.49981
-4.22363
-3.2056
-2.40649
-1.7875
-1.31339
-0.953585
-0.68261
-0.479915
-0.329161
-0.217538
-0.135166
-0.0745297
-0.0300058
0.00263773
0.026524
0.0439881
0.0567364
0.0660389
0.0728157
0.0777595
0.0813588
0.0839908
0.0859124
0.0873285
0.0883704
0.0891504
0.0897303
0.0901738
0.0905077
0.0907688
0.0909664
0.0911255
0.091247
0.0913501
0.0914301
0.0915029
0.0915644
0.0916284
0.0916875
0.0917526
0.0918148
0.0918808
0.0919417
0.092005
0.0920594
0.0921139
0.0921572
0.0921992
0.0922302
0.0922602
0.0922823
0.0923057
0.0923247
0.0923484
0.0923706
0.0923985
0.0924249
0.0924546
0.0924792
0.0925022
0.0925137
0.0925145
0.0924926
0.0924458
0.0923575
0.0922193
0.092008
0.0917042
0.0912717
0.0906745
0.0898511
0.0887296
0.0872088
0.0851686
0.0824491
0.0788682
0.0742208
0.068292
0.0608683
0.0517166
0.0404558
0.0261212
0.00636941
-0.0246161
-0.0765316
-0.163735
-0.269627
-0.284662
-8.88215
-19.9263
-24.8834
-25.9967
-24.8631
-22.4797
-19.5206
-16.4239
-13.4746
-10.827
-8.54908
-6.65
-5.10537
-3.87349
-2.90674
-2.15806
-1.58473
-1.14971
-0.822166
-0.577204
-0.395034
-0.260162
-0.160646
-0.0874016
-0.0336254
0.00579615
0.034642
0.055731
0.0711267
0.082361
0.0905473
0.0965191
0.100868
0.104047
0.106367
0.108074
0.109327
0.11026
0.110952
0.111476
0.111869
0.112173
0.112401
0.112583
0.112721
0.112836
0.112924
0.113003
0.113069
0.113136
0.113198
0.113264
0.113327
0.113394
0.113455
0.113518
0.113572
0.113626
0.113668
0.113709
0.11374
0.113769
0.113791
0.113814
0.113832
0.113855
0.113877
0.113903
0.113928
0.113955
0.113976
0.113993
0.113997
0.113988
0.113952
0.113885
0.113771
0.113597
0.113336
0.112964
0.112439
0.111716
0.11072
0.109365
0.107527
0.10506
0.101771
0.0974381
0.0918116
0.0846318
0.0756455
0.0645912
0.0510704
0.0340686
0.011067
-0.0243989
-0.0833806
-0.182965
-0.305807
-0.328634
-10.5185
-23.4212
-29.1401
-30.4043
-29.0667
-26.2732
-22.8084
-19.1843
-15.7344
-12.6388
-9.97665
-7.75798
-5.95396
-4.51559
-3.3871
-2.51338
-1.84444
-1.337
-0.955033
-0.669417
-0.457041
-0.299823
-0.183831
-0.0984717
-0.0358051
0.0101297
0.043742
0.068315
0.0862557
0.0993478
0.10889
0.11585
0.120921
0.124626
0.12733
0.129316
0.130773
0.131854
0.132653
0.133255
0.133705
0.13405
0.134308
0.134512
0.134665
0.134791
0.134888
0.134973
0.135043
0.135113
0.135177
0.135245
0.135309
0.135375
0.135436
0.135499
0.135552
0.135605
0.135647
0.135687
0.135717
0.135746
0.135768
0.13579
0.135808
0.135831
0.135852
0.135877
0.1359
0.135924
0.135941
0.135953
0.13595
0.13593
0.13588
0.135796
0.135656
0.135447
0.135139
0.134702
0.134088
0.133243
0.132083
0.130503
0.128362
0.125485
0.121647
0.116588
0.110015
0.101623
0.0911241
0.0782392
0.0625858
0.0431858
0.0175284
-0.021143
-0.0847692
-0.192821
-0.328705
-0.361408
-12.1645
-26.8382
-33.2531
-34.6491
-33.1118
-29.9209
-25.9668
-21.833
-17.9005
-14.3737
-11.3422
-8.81664
-6.76383
-5.12761
-3.84427
-2.85095
-2.09065
-1.51405
-1.08012
-0.755732
-0.514558
-0.33604
-0.204348
-0.107447
-0.0363094
0.0158313
0.0539856
0.0818792
0.102246
0.11711
0.127945
0.135849
0.141609
0.145816
0.148887
0.151139
0.15279
0.154013
0.154914
0.155591
0.156094
0.156478
0.156766
0.15699
0.157159
0.157295
0.1574
0.157491
0.157565
0.157638
0.157704
0.157772
0.157837
0.157904
0.157964
0.158026
0.158079
0.158131
0.158172
0.158212
0.158241
0.15827
0.158291
0.158313
0.158331
0.158353
0.158374
0.158398
0.158419
0.158441
0.158454
0.158461
0.158451
0.158421
0.158358
0.158255
0.158091
0.157849
0.157495
0.156997
0.156299
0.155339
0.154022
0.152229
0.149798
0.14653
0.142169
0.136415
0.128932
0.119375
0.10742
0.0927847
0.0751357
0.0536208
0.0259331
-0.0145857
-0.0802311
-0.192401
-0.336785
-0.381304
-13.8199
-30.1538
-37.1933
-38.704
-36.9743
-33.401
-28.9767
-24.354
-19.9595
-16.0207
-12.6369
-9.81915
-7.52968
-5.70547
-4.27515
-3.16842
-2.32155
-1.67948
-1.19642
-0.835375
-0.566993
-0.368361
-0.221848
-0.114049
-0.0349161
0.0230835
0.0655266
0.0965562
0.119215
0.135752
0.147809
0.156606
0.163017
0.167699
0.171117
0.173622
0.175457
0.176813
0.177812
0.178559
0.179114
0.179535
0.179849
0.180093
0.180276
0.180423
0.180536
0.180632
0.18071
0.180785
0.180853
0.180922
0.180987
0.181054
0.181114
0.181176
0.181228
0.181279
0.181319
0.181358
0.181387
0.181415
0.181436
0.181458
0.181476
0.181498
0.181518
0.181541
0.18156
0.18158
0.18159
0.181591
0.181574
0.181535
0.181459
0.18134
0.181152
0.180879
0.180483
0.179926
0.179149
0.178081
0.176616
0.174622
0.171919
0.168282
0.163425
0.15701
0.148661
0.13799
0.124645
0.108346
0.0888423
0.0654963
0.0364026
-0.00458816
-0.0695371
-0.181186
-0.328967
-0.38685
-15.4825
-33.3382
-40.9292
-42.5416
-40.6302
-36.6924
-31.8196
-26.7315
-21.8983
-17.5694
-13.8525
-10.759
-8.24649
-6.24531
-4.6768
-3.46355
-2.53547
-1.83204
-1.30297
-0.907626
-0.613802
-0.396367
-0.236001
-0.118021
-0.031417
0.0320577
0.0785093
0.112471
0.137272
0.155376
0.168576
0.178207
0.185228
0.190356
0.194099
0.19684
0.198848
0.200329
0.201419
0.202232
0.202835
0.203291
0.203631
0.203893
0.20409
0.204246
0.204366
0.204467
0.204549
0.204626
0.204696
0.204766
0.204831
0.204898
0.204957
0.205018
0.20507
0.205119
0.205159
0.205197
0.205226
0.205253
0.205274
0.205296
0.205315
0.205336
0.205355
0.205377
0.205396
0.205413
0.205419
0.205416
0.205393
0.205344
0.205257
0.205121
0.204912
0.204609
0.204173
0.203562
0.202711
0.201542
0.19994
0.19776
0.194802
0.19082
0.185497
0.178462
0.169295
0.157569
0.142903
0.125032
0.103816
0.0789098
0.0490011
0.00886079
-0.0527106
-0.159087
-0.304719
-0.376845
-17.1467
-36.3548
-44.4273
-46.1352
-44.0565
-39.7742
-34.4773
-28.9501
-23.7044
-19.0096
-14.9812
-11.63
-8.90952
-6.74354
-5.04649
-3.7343
-2.73087
-1.97057
-1.3989
-0.971827