/*--------------------------------*- C++ -*----------------------------------*\
| =========                 |                                                 |
| \\      /  F ield         | OpenFOAM: The Open Source CFD Toolbox           |
|  \\    /   O peration     | Version:  v1906                                 |
|   \\  /    A nd           | Web:      www.OpenFOAM.com                      |
|    \\/     M anipulation  |                                                 |
\*---------------------------------------------------------------------------*/
FoamFile
{
    version     2.0;
    format      ascii;
    class       volScalarField;
    location    "0.5";
    object      pB;
}
// * * * * * * * * * * * * * * * * * * * * * * * * * * * * * * * * * * * * * //

dimensions      [1 1 -3 0 0 -1 0];


internalField   nonuniform List<scalar> 
4000
(
40.0275
62.2934
57.497
41.4126
28.4678
17.2993
10.5169
5.74012
3.15692
1.46634
0.618144
0.0719762
-0.185874
-0.355192
-0.4302
-0.481823
-0.502953
-0.518626
-0.524377
-0.529148
-0.53063
-0.532085
-0.532409
-0.532857
-0.532888
-0.53301
-0.532965
-0.532995
-0.532962
-0.532982
-0.532959
-0.532964
-0.532917
-0.532898
-0.532837
-0.532814
-0.532763
-0.53275
-0.532718
-0.532706
-0.532667
-0.53266
-0.532633
-0.532642
-0.532625
-0.532621
-0.532596
-0.532593
-0.532583
-0.532609
-0.532614
-0.53265
-0.532654
-0.532662
-0.532639
-0.532626
-0.53259
-0.532579
-0.532572
-0.532585
-0.532608
-0.532653
-0.532689
-0.532736
-0.532758
-0.532771
-0.532784
-0.532786
-0.532802
-0.532833
-0.532874
-0.532931
-0.532996
-0.533053
-0.533107
-0.53315
-0.533178
-0.533212
-0.533241
-0.533286
-0.533329
-0.533385
-0.533443
-0.533499
-0.533544
-0.533564
-0.533549
-0.53346
-0.533261
-0.53283
-0.532024
-0.530482
-0.527803
-0.523097
-0.51581
-0.504699
-0.493609
-0.482392
-0.498205
-0.35677
41.414
61.8803
57.0081
41.159
28.2868
17.2337
10.4805
5.74575
3.17005
1.49312
0.646145
0.104401
-0.153464
-0.321292
-0.396429
-0.44753
-0.468745
-0.484233
-0.49003
-0.494733
-0.496235
-0.497665
-0.497999
-0.498437
-0.498473
-0.498592
-0.498548
-0.498577
-0.498543
-0.498563
-0.498539
-0.498544
-0.498497
-0.498478
-0.498418
-0.498395
-0.498344
-0.498331
-0.498299
-0.498288
-0.498248
-0.498242
-0.498215
-0.498224
-0.498206
-0.498202
-0.498177
-0.498175
-0.498164
-0.498189
-0.498195
-0.49823
-0.498234
-0.498242
-0.498219
-0.498206
-0.498172
-0.498161
-0.498153
-0.498167
-0.49819
-0.498234
-0.49827
-0.498317
-0.498339
-0.498353
-0.498365
-0.498368
-0.498383
-0.498415
-0.498455
-0.498512
-0.498577
-0.498634
-0.498687
-0.498731
-0.498759
-0.498793
-0.498822
-0.498867
-0.49891
-0.498967
-0.499024
-0.499081
-0.499126
-0.499145
-0.499131
-0.499043
-0.498844
-0.498415
-0.49761
-0.496074
-0.493403
-0.488723
-0.481488
-0.470563
-0.459734
-0.448947
-0.45974
-0.305811
42.3718
61.2482
56.2284
40.7136
27.9688
17.1003
10.4075
5.7437
3.18692
1.53368
0.691372
0.157316
-0.0996244
-0.264911
-0.339933
-0.390172
-0.411416
-0.426608
-0.43244
-0.437039
-0.43856
-0.439952
-0.440297
-0.440721
-0.440763
-0.440876
-0.440835
-0.440862
-0.440827
-0.440845
-0.44082
-0.440826
-0.44078
-0.440762
-0.440701
-0.440678
-0.440628
-0.440615
-0.440582
-0.440571
-0.440532
-0.440526
-0.4405
-0.440508
-0.440489
-0.440485
-0.44046
-0.440458
-0.440448
-0.440472
-0.440477
-0.440511
-0.440515
-0.440523
-0.440501
-0.440489
-0.440456
-0.440446
-0.440438
-0.440452
-0.440474
-0.440518
-0.440553
-0.4406
-0.440623
-0.440638
-0.440649
-0.440653
-0.440668
-0.4407
-0.440739
-0.440795
-0.440859
-0.440918
-0.44097
-0.441013
-0.441041
-0.441076
-0.441106
-0.441151
-0.441195
-0.441251
-0.441309
-0.441366
-0.44141
-0.44143
-0.441417
-0.44133
-0.441133
-0.440707
-0.439907
-0.438383
-0.43573
-0.431099
-0.423959
-0.413311
-0.402878
-0.39248
-0.397198
-0.223463
42.5011
60.2383
55.0739
39.999
27.4577
16.848
10.256
5.69414
3.17103
1.55212
0.719039
0.196074
-0.0586351
-0.220316
-0.294855
-0.343895
-0.365072
-0.37986
-0.385704
-0.390164
-0.3917
-0.393042
-0.393397
-0.393805
-0.393852
-0.393959
-0.39392
-0.393944
-0.393908
-0.393925
-0.393899
-0.393904
-0.39386
-0.393841
-0.393782
-0.393759
-0.393709
-0.393696
-0.393662
-0.393652
-0.393614
-0.393608
-0.393582
-0.393589
-0.393569
-0.393565
-0.39354
-0.393539
-0.393528
-0.393551
-0.393556
-0.393589
-0.393592
-0.393601
-0.393579
-0.393568
-0.393538
-0.393529
-0.393521
-0.393534
-0.393555
-0.393599
-0.393634
-0.39368
-0.393704
-0.393721
-0.39373
-0.393736
-0.39375
-0.393782
-0.39382
-0.393875
-0.393939
-0.393998
-0.39405
-0.394093
-0.394121
-0.394156
-0.394187
-0.394232
-0.394276
-0.394333
-0.394391
-0.394448
-0.394492
-0.394512
-0.3945
-0.394417
-0.394221
-0.393801
-0.393011
-0.391507
-0.388886
-0.384329
-0.377332
-0.367052
-0.357136
-0.347015
-0.344503
-0.14429
41.8509
58.8169
53.5624
39.0153
26.7595
16.4741
10.0262
5.59417
3.12091
1.54604
0.727375
0.218558
-0.0323424
-0.189487
-0.263075
-0.310637
-0.331611
-0.345913
-0.351731
-0.356027
-0.357566
-0.358851
-0.359212
-0.3596
-0.359653
-0.359752
-0.359716
-0.359738
-0.3597
-0.359714
-0.359688
-0.359692
-0.359649
-0.359631
-0.359573
-0.35955
-0.3595
-0.359486
-0.359452
-0.359443
-0.359405
-0.359401
-0.359375
-0.35938
-0.35936
-0.359355
-0.35933
-0.35933
-0.359319
-0.359341
-0.359345
-0.359376
-0.359379
-0.359388
-0.359367
-0.359358
-0.35933
-0.359322
-0.359314
-0.359327
-0.359347
-0.35939
-0.359425
-0.359471
-0.359496
-0.359514
-0.359522
-0.359529
-0.359543
-0.359575
-0.359612
-0.359665
-0.359729
-0.359788
-0.35984
-0.359882
-0.35991
-0.359946
-0.359978
-0.360024
-0.360069
-0.360125
-0.360185
-0.360241
-0.360285
-0.360306
-0.360296
-0.360215
-0.360024
-0.359612
-0.358836
-0.35736
-0.354785
-0.350328
-0.343521
-0.333684
-0.324359
-0.314331
-0.303789
-0.0748162
40.5899
56.9871
51.7188
37.7774
25.8893
15.9882
9.72773
5.45147
3.04478
1.52308
0.724342
0.23253
-0.0128262
-0.16457
-0.236693
-0.282524
-0.303141
-0.316886
-0.322631
-0.326742
-0.32827
-0.329493
-0.329857
-0.330224
-0.33028
-0.330372
-0.330338
-0.330356
-0.330318
-0.330328
-0.330301
-0.330305
-0.330264
-0.330246
-0.330189
-0.330166
-0.330116
-0.330102
-0.330068
-0.330059
-0.330023
-0.330018
-0.329993
-0.329997
-0.329975
-0.329971
-0.329946
-0.329947
-0.329935
-0.329955
-0.329959
-0.329988
-0.329991
-0.33
-0.32998
-0.329973
-0.329948
-0.329941
-0.329932
-0.329945
-0.329964
-0.330007
-0.330041
-0.330087
-0.330113
-0.330132
-0.330139
-0.330147
-0.330162
-0.330193
-0.330229
-0.330281
-0.330343
-0.330404
-0.330455
-0.330496
-0.330525
-0.33056
-0.330594
-0.330641
-0.330686
-0.330743
-0.330803
-0.33086
-0.330903
-0.330925
-0.330917
-0.330841
-0.330655
-0.330254
-0.329497
-0.328058
-0.325545
-0.321216
-0.314641
-0.305304
-0.296609
-0.28648
-0.267501
-0.0113763
38.8576
54.7623
49.5634
36.298
24.858
15.3965
9.36593
5.26992
2.94636
1.48651
0.713344
0.241273
0.00326141
-0.142262
-0.212377
-0.256243
-0.276338
-0.289459
-0.295081
-0.298989
-0.300492
-0.301647
-0.302009
-0.302354
-0.302413
-0.302497
-0.302465
-0.302479
-0.302439
-0.302446
-0.302419
-0.302422
-0.302383
-0.302365
-0.302309
-0.302286
-0.302236
-0.302222
-0.302187
-0.302179
-0.302144
-0.30214
-0.302115
-0.302118
-0.302095
-0.302091
-0.302066
-0.302067
-0.302055
-0.302074
-0.302077
-0.302103
-0.302106
-0.302115
-0.302097
-0.302092
-0.30207
-0.302065
-0.302055
-0.302068
-0.302086
-0.302127
-0.302161
-0.302207
-0.302235
-0.302255
-0.302261
-0.30227
-0.302285
-0.302316
-0.30235
-0.3024
-0.302462
-0.302523
-0.302574
-0.302614
-0.302643
-0.302679
-0.302715
-0.302762
-0.302808
-0.302865
-0.302926
-0.302983
-0.303026
-0.303049
-0.303044
-0.302972
-0.302793
-0.302407
-0.301674
-0.300281
-0.297847
-0.293672
-0.287373
-0.278583
-0.270531
-0.260129
-0.232697
0.0463997
36.7617
52.1623
47.1143
34.5887
23.6739
14.7033
8.9435
5.05088
2.82664
1.43698
0.694975
0.245301
0.0164249
-0.12209
-0.189645
-0.231324
-0.250727
-0.263161
-0.268607
-0.272295
-0.273757
-0.274841
-0.275196
-0.275517
-0.275577
-0.275654
-0.275622
-0.275632
-0.275591
-0.275595
-0.275567
-0.275569
-0.275532
-0.275515
-0.275459
-0.275436
-0.275386
-0.275373
-0.275338
-0.27533
-0.275296
-0.275293
-0.275268
-0.275269
-0.275245
-0.275241
-0.275216
-0.275218
-0.275206
-0.275223
-0.275224
-0.275249
-0.275251
-0.27526
-0.275243
-0.275241
-0.275222
-0.275218
-0.275209
-0.275221
-0.275238
-0.275278
-0.275312
-0.275357
-0.275387
-0.275409
-0.275414
-0.275423
-0.275439
-0.27547
-0.275502
-0.275551
-0.275611
-0.275673
-0.275724
-0.275763
-0.275791
-0.275828
-0.275866
-0.275914
-0.275961
-0.276018
-0.27608
-0.276137
-0.27618
-0.276204
-0.276202
-0.276137
-0.275966
-0.275597
-0.274893
-0.273557
-0.271218
-0.267226
-0.261247
-0.253037
-0.245627
-0.23484
-0.199365
0.0968881
34.3879
49.2128
44.3893
32.6617
22.3454
13.913
8.463
4.79561
2.68631
1.37481
0.669441
0.244738
0.0267509
-0.103994
-0.168443
-0.20772
-0.226261
-0.237949
-0.243165
-0.246619
-0.248023
-0.249032
-0.249376
-0.249672
-0.249732
-0.249801
-0.249769
-0.249776
-0.249733
-0.249734
-0.249705
-0.249706
-0.24967
-0.249654
-0.249599
-0.249575
-0.249526
-0.249513
-0.249478
-0.249471
-0.249439
-0.249435
-0.24941
-0.24941
-0.249385
-0.249381
-0.249356
-0.249359
-0.249346
-0.249361
-0.249362
-0.249384
-0.249385
-0.249395
-0.24938
-0.24938
-0.249364
-0.249362
-0.249352
-0.249364
-0.249379
-0.249419
-0.249452
-0.249498
-0.249529
-0.249552
-0.249556
-0.249567
-0.249583
-0.249613
-0.249643
-0.24969
-0.24975
-0.249813
-0.249863
-0.249901
-0.249929
-0.249967
-0.250006
-0.250056
-0.250103
-0.250161
-0.250223
-0.25028
-0.250323
-0.250349
-0.250351
-0.250292
-0.250132
-0.249783
-0.249114
-0.247844
-0.245618
-0.241836
-0.236218
-0.228616
-0.221836
-0.210629
-0.168002
0.138586
31.8041
45.9435
41.4077
30.5307
20.8812
13.0309
7.92737
4.50568
2.52624
1.30052
0.637042
0.239791
0.0343925
-0.0878468
-0.14866
-0.185327
-0.202844
-0.21373
-0.218665
-0.22187
-0.223202
-0.224133
-0.22446
-0.224731
-0.224789
-0.224849
-0.224817
-0.22482
-0.224776
-0.224774
-0.224744
-0.224745
-0.22471
-0.224694
-0.22464
-0.224616
-0.224567
-0.224554
-0.22452
-0.224513
-0.224482
-0.224479
-0.224453
-0.224451
-0.224426
-0.224421
-0.224398
-0.224401
-0.224388
-0.224401
-0.2244
-0.22442
-0.224421
-0.22443
-0.224417
-0.22442
-0.224408
-0.224407
-0.224397
-0.224408
-0.224422
-0.224461
-0.224494
-0.22454
-0.224572
-0.224596
-0.224601
-0.224612
-0.224628
-0.224658
-0.224686
-0.224731
-0.22479
-0.224853
-0.224903
-0.22494
-0.224969
-0.225007
-0.225048
-0.225098
-0.225146
-0.225205
-0.225268
-0.225325
-0.225369
-0.225396
-0.225402
-0.225351
-0.225203
-0.224877
-0.224249
-0.223055
-0.220959
-0.217414
-0.212192
-0.205217
-0.199049
-0.187479
-0.13904
0.170593
29.0625
42.3862
38.1895
28.2108
19.2908
12.063
7.33991
4.18303
2.34747
1.21471
0.59813
0.230701
0.039516
-0.0735092
-0.130182
-0.164042
-0.180382
-0.190413
-0.19502
-0.197963
-0.199207
-0.200057
-0.200362
-0.200608
-0.200661
-0.200714
-0.200681
-0.20068
-0.200634
-0.20063
-0.200599
-0.200599
-0.200565
-0.200549
-0.200496
-0.200472
-0.200424
-0.200411
-0.200377
-0.200371
-0.200341
-0.200337
-0.200311
-0.200308
-0.200282
-0.200278
-0.200255
-0.200259
-0.200245
-0.200256
-0.200254
-0.200272
-0.200272
-0.200281
-0.20027
-0.200276
-0.200267
-0.200267
-0.200257
-0.200267
-0.200281
-0.200318
-0.200351
-0.200397
-0.20043
-0.200456
-0.20046
-0.200472
-0.200489
-0.200518
-0.200545
-0.200588
-0.200646
-0.20071
-0.200758
-0.200795
-0.200823
-0.200863
-0.200905
-0.200957
-0.201006
-0.201065
-0.201129
-0.201186
-0.201229
-0.201259
-0.201269
-0.201227
-0.201093
-0.200793
-0.200212
-0.199104
-0.197156
-0.193872
-0.189073
-0.182741
-0.177168
-0.165378
-0.112824
0.192509
26.2032
38.573
34.7556
25.7175
17.5841
11.0156
6.70427
3.82987
2.15115
1.11811
0.553095
0.21773
0.0422852
-0.0608522
-0.112913
-0.143774
-0.158795
-0.16792
-0.172158
-0.174825
-0.175969
-0.176735
-0.177014
-0.177233
-0.177281
-0.177326
-0.177292
-0.177286
-0.177239
-0.177233
-0.1772
-0.177199
-0.177167
-0.177151
-0.177099
-0.177074
-0.177026
-0.177014
-0.176982
-0.176976
-0.176947
-0.176943
-0.176916
-0.176911
-0.176884
-0.17688
-0.176859
-0.176863
-0.176848
-0.176857
-0.176854
-0.17687
-0.176869
-0.176879
-0.17687
-0.176878
-0.176873
-0.176874
-0.176864
-0.176873
-0.176885
-0.176921
-0.176954
-0.177001
-0.177036
-0.177062
-0.177067
-0.177079
-0.177096
-0.177125
-0.17715
-0.177191
-0.177248
-0.177312
-0.177361
-0.177396
-0.177425
-0.177465
-0.177509
-0.177561
-0.177611
-0.177671
-0.177736
-0.177793
-0.177837
-0.177869
-0.177884
-0.177851
-0.177733
-0.177461
-0.176932
-0.17592
-0.174136
-0.171137
-0.166785
-0.161107
-0.156114
-0.144327
-0.0896049
0.204324
23.2568
34.5355
31.1273
23.0675
15.7718
9.89589
6.02444
3.44865
1.93863
1.01153
0.502382
0.201172
0.0428763
-0.0497414
-0.0967524
-0.124438
-0.138009
-0.14618
-0.150008
-0.152389
-0.15342
-0.154099
-0.154348
-0.154541
-0.154581
-0.154619
-0.154582
-0.154573
-0.154525
-0.154516
-0.154483
-0.154481
-0.154449
-0.154434
-0.154382
-0.154357
-0.154309
-0.154298
-0.154267
-0.154262
-0.154233
-0.154228
-0.1542
-0.154193
-0.154166
-0.154163
-0.154143
-0.154147
-0.154132
-0.154139
-0.154135
-0.154148
-0.154147
-0.154157
-0.15415
-0.154161
-0.154159
-0.154161
-0.154151
-0.154159
-0.15417
-0.154205
-0.154238
-0.154285
-0.154321
-0.154348
-0.154353
-0.154366
-0.154384
-0.154412
-0.154435
-0.154474
-0.154531
-0.154595
-0.154643
-0.154678
-0.154707
-0.154748
-0.154793
-0.154846
-0.154897
-0.154958
-0.155023
-0.155081
-0.155125
-0.155159
-0.155179
-0.155157
-0.155056
-0.154816
-0.154345
-0.153437
-0.151832
-0.149139
-0.145256
-0.140239
-0.135821
-0.124317
-0.0695147
0.20636
20.2464
30.3046
27.327
20.2781
13.8648
8.71126
5.30477
3.0421
1.71139
0.895898
0.446497
0.181355
0.0414867
-0.0400297
-0.0815955
-0.10594
-0.117942
-0.125115
-0.1285
-0.130583
-0.13149
-0.132079
-0.132295
-0.13246
-0.132492
-0.132522
-0.132483
-0.13247
-0.132421
-0.13241
-0.132376
-0.132373
-0.132341
-0.132326
-0.132275
-0.13225
-0.132203
-0.132192
-0.132162
-0.132158
-0.132129
-0.132123
-0.132094
-0.132086
-0.132058
-0.132056
-0.132038
-0.132042
-0.132026
-0.132032
-0.132026
-0.132038
-0.132035
-0.132046
-0.132041
-0.132055
-0.132055
-0.132059
-0.132048
-0.132055
-0.132066
-0.132099
-0.132132
-0.13218
-0.132217
-0.132245
-0.13225
-0.132264
-0.132282
-0.132309
-0.132331
-0.132368
-0.132424
-0.132489
-0.132537
-0.13257
-0.132599
-0.132641
-0.132688
-0.132742
-0.132794
-0.132855
-0.132921
-0.132979
-0.133023
-0.13306
-0.133086
-0.133075
-0.132992
-0.132787
-0.132378
-0.131584
-0.130171
-0.127802
-0.124407
-0.120058
-0.116214
-0.105317
-0.0525553
0.199209
17.1897
25.9096
23.377
17.3667
11.8749
7.46959
4.54991
2.61314
1.47108
0.772222
0.386002
0.158641
0.0383346
-0.0315571
-0.0673267
-0.0881814
-0.0985099
-0.104645
-0.107554
-0.109329
-0.110104
-0.1106
-0.110781
-0.110918
-0.11094
-0.110962
-0.110921
-0.110904
-0.110853
-0.110841
-0.110807
-0.110802
-0.11077
-0.110756
-0.110705
-0.110679
-0.110633
-0.110624
-0.110595
-0.110591
-0.110562
-0.110555
-0.110524
-0.110515
-0.110487
-0.110486
-0.110469
-0.110474
-0.110457
-0.110461
-0.110454
-0.110464
-0.11046
-0.110472
-0.110469
-0.110485
-0.110488
-0.110493
-0.110481
-0.110488
-0.110497
-0.11053
-0.110563
-0.110612
-0.11065
-0.110679
-0.110684
-0.110698
-0.110716
-0.110743
-0.110763
-0.110799
-0.110855
-0.11092
-0.110967
-0.111
-0.111028
-0.111071
-0.111119
-0.111174
-0.111227
-0.111288
-0.111355
-0.111414
-0.111458
-0.111498
-0.11153
-0.111531
-0.111468
-0.1113
-0.110958
-0.110284
-0.109076
-0.107049
-0.104157
-0.100482
-0.0972187
-0.0872678
-0.0386009
0.183694
14.0998
21.3786
19.3
14.3517
9.81395
6.17909
3.76478
2.16489
1.21946
0.641596
0.321512
0.133423
0.0336571
-0.0241526
-0.0538232
-0.0710578
-0.0796222
-0.0846837
-0.087092
-0.0885496
-0.0891836
-0.0895857
-0.0897273
-0.089836
-0.0898477
-0.0898612
-0.0898187
-0.0897981
-0.0897462
-0.0897326
-0.0896971
-0.0896913
-0.0896592
-0.0896447
-0.0895938
-0.0895679
-0.0895226
-0.0895149
-0.0894874
-0.0894839
-0.0894548
-0.0894458
-0.089414
-0.0894028
-0.089375
-0.0893753
-0.0893593
-0.0893645
-0.0893476
-0.0893496
-0.0893413
-0.0893503
-0.0893459
-0.0893575
-0.0893569
-0.0893755
-0.0893804
-0.0893857
-0.0893742
-0.0893802
-0.0893889
-0.089421
-0.0894542
-0.0895031
-0.089542
-0.0895714
-0.0895772
-0.0895918
-0.0896103
-0.0896365
-0.0896552
-0.0896901
-0.0897448
-0.0898099
-0.0898567
-0.0898891
-0.0899176
-0.089961
-0.0900102
-0.0900659
-0.0901198
-0.090182
-0.0902491
-0.0903078
-0.0903531
-0.0903957
-0.0904342
-0.0904469
-0.0904054
-0.0902769
-0.0900049
-0.0894581
-0.0884662
-0.0867956
-0.0844217
-0.0814246
-0.0787513
-0.0700826
-0.0274074
0.160816
10.9865
16.7386
15.1191
11.2514
7.69445
4.84824
2.95455
1.70064
0.958442
0.505188
0.253689
0.106121
0.0277081
-0.0176354
-0.0409556
-0.0544602
-0.0611857
-0.0651441
-0.0670291
-0.0681619
-0.0686487
-0.0689541
-0.0690551
-0.0691349
-0.0691354
-0.0691408
-0.0690961
-0.0690719
-0.0690191
-0.0690041
-0.0689681
-0.0689611
-0.0689283
-0.0689138
-0.0688632
-0.068837
-0.0687926
-0.0687863
-0.0687603
-0.068757
-0.0687274
-0.0687166
-0.0686831
-0.0686705
-0.0686428
-0.0686443
-0.0686298
-0.0686352
-0.068618
-0.0686186
-0.0686094
-0.068617
-0.0686118
-0.068624
-0.0686255
-0.0686461
-0.0686528
-0.0686587
-0.0686467
-0.0686521
-0.0686602
-0.0686917
-0.068725
-0.0687746
-0.0688143
-0.0688441
-0.0688503
-0.0688654
-0.0688842
-0.0689098
-0.0689274
-0.0689611
-0.0690153
-0.0690804
-0.0691268
-0.0691588
-0.0691873
-0.0692311
-0.0692813
-0.0693379
-0.0693926
-0.0694555
-0.069523
-0.0695821
-0.0696281
-0.0696737
-0.0697187
-0.0697441
-0.0697248
-0.0696373
-0.0694392
-0.0690252
-0.0682581
-0.0669565
-0.0651113
-0.0627959
-0.0607249
-0.053647
-0.0186252
0.131729
7.85744
12.0149
10.8573
8.08452
5.52907
3.48577
2.12459
1.22379
0.689998
0.364221
0.183234
0.0771742
0.0207554
-0.0118167
-0.0285884
-0.0382757
-0.0431034
-0.045935
-0.0472795
-0.0480813
-0.0484158
-0.0486231
-0.0486816
-0.0487323
-0.0487211
-0.0487184
-0.0486714
-0.0486439
-0.0485903
-0.048574
-0.0485375
-0.0485292
-0.0484957
-0.048481
-0.0484305
-0.0484042
-0.0483609
-0.0483559
-0.0483314
-0.0483281
-0.0482978
-0.0482851
-0.0482499
-0.048236
-0.0482083
-0.0482111
-0.0481981
-0.0482037
-0.0481862
-0.0481857
-0.0481757
-0.0481822
-0.0481763
-0.048189
-0.0481925
-0.0482149
-0.0482231
-0.0482292
-0.0482169
-0.0482217
-0.0482294
-0.0482604
-0.048294
-0.0483442
-0.0483845
-0.0484147
-0.0484212
-0.0484369
-0.048456
-0.0484811
-0.0484977
-0.0485304
-0.048584
-0.0486492
-0.0486952
-0.0487267
-0.0487552
-0.0487994
-0.0488506
-0.0489079
-0.0489635
-0.049027
-0.0490949
-0.0491542
-0.049201
-0.0492498
-0.0493016
-0.0493399
-0.0493437
-0.0492988
-0.0491771
-0.0489003
-0.0483652
-0.0474424
-0.0461346
-0.0445038
-0.0430472
-0.0378225
-0.0118149
0.0976986
4.7182
7.23238
6.53763
4.86994
3.33074
2.10058
1.28043
0.73789
0.4162
0.219967
0.110877
0.0470418
0.0130782
-0.00650123
-0.0165819
-0.0223884
-0.0252759
-0.0269635
-0.0277551
-0.0282216
-0.0283999
-0.0285079
-0.0285227
-0.028544
-0.0285208
-0.02851
-0.0284607
-0.0284301
-0.0283758
-0.0283584
-0.0283215
-0.028312
-0.0282775
-0.0282624
-0.0282121
-0.0281857
-0.0281436
-0.02814
-0.0281168
-0.0281134
-0.0280822
-0.0280674
-0.0280304
-0.0280153
-0.0279878
-0.0279918
-0.0279803
-0.0279862
-0.0279685
-0.0279671
-0.0279565
-0.027962
-0.0279555
-0.0279688
-0.0279742
-0.0279981
-0.0280073
-0.0280136
-0.028001
-0.0280053
-0.0280127
-0.0280434
-0.0280773
-0.028128
-0.0281688
-0.0281993
-0.0282062
-0.0282224
-0.0282418
-0.0282664
-0.0282823
-0.0283141
-0.0283673
-0.0284323
-0.0284779
-0.0285091
-0.0285376
-0.0285822
-0.0286341
-0.028692
-0.0287486
-0.0288126
-0.0288808
-0.0289404
-0.028988
-0.0290401
-0.0290987
-0.0291502
-0.0291778
-0.0291766
-0.0291332
-0.0289969
-0.028699
-0.0281622
-0.0273979
-0.0264538
-0.0256219
-0.0224498
-0.0064653
0.0600771
1.57333
2.41474
2.18325
1.6267
1.11257
0.701718
0.427701
0.246519
0.139168
0.0737275
0.0373728
0.0161943
0.00496383
-0.00148918
-0.00479277
-0.00668017
-0.00760213
-0.0081351
-0.00836641
-0.00849477
-0.00851455
-0.00852262
-0.00849291
-0.00848479
-0.00844942
-0.00843036
-0.00837891
-0.0083454
-0.00829054
-0.00827213
-0.00823486
-0.00822431
-0.00818863
-0.00817284
-0.00812281
-0.00809659
-0.00805565
-0.00805328
-0.00803131
-0.00802765
-0.00799544
-0.00797847
-0.00793973
-0.00792351
-0.00789621
-0.00790134
-0.0078912
-0.00789735
-0.00787966
-0.00787766
-0.00786656
-0.00787128
-0.00786439
-0.00787823
-0.0078854
-0.00791038
-0.0079203
-0.00792658
-0.00791368
-0.00791759
-0.00792493
-0.00795544
-0.0079898
-0.00804097
-0.00808203
-0.00811269
-0.00811999
-0.0081368
-0.00815637
-0.00818065
-0.00819591
-0.00822713
-0.00827987
-0.00834471
-0.00838989
-0.00842076
-0.00844932
-0.00849411
-0.00854667
-0.00860519
-0.00866262
-0.00872712
-0.00879557
-0.00885541
-0.008904
-0.00895944
-0.00902491
-0.0090898
-0.00914152
-0.00918477
-0.00922077
-0.00922684
-0.00916939
-0.00902296
-0.00880608
-0.00855002
-0.00834942
-0.00735464
-0.00201324
0.0202776
-1.57336
-2.41454
-2.1827
-1.62612
-1.11222
-0.701717
-0.427889
-0.246675
-0.138942
-0.0731716
-0.0365124
-0.0148902
-0.00329536
0.00342222
0.00692415
0.00896843
0.0100204
0.0106455
0.010977
0.0111878
0.0113273
0.0114195
0.011494
0.0115316
0.0115791
0.0116064
0.01166
0.0116962
0.0117514
0.0117708
0.0118084
0.0118199
0.0118569
0.0118735
0.0119233
0.0119492
0.0119889
0.0119901
0.0120111
0.0120151
0.0120485
0.0120677
0.0121081
0.0121254
0.0121525
0.0121463
0.0121552
0.0121487
0.0121662
0.0121686
0.01218
0.0121758
0.012183
0.0121686
0.0121598
0.0121341
0.0121239
0.0121178
0.0121309
0.0121272
0.0121198
0.0120893
0.0120545
0.0120029
0.0119617
0.011931
0.0119233
0.011906
0.0118861
0.0118621
0.0118473
0.0118165
0.0117641
0.0116996
0.0116548
0.0116242
0.0115956
0.0115507
0.0114976
0.0114386
0.0113803
0.0113153
0.0112468
0.0111867
0.0111371
0.0110783
0.0110059
0.0109276
0.0108515
0.0107635
0.0106477
0.0104987
0.0103146
0.010069
0.00973716
0.00930474
0.00887177
0.00764711
0.00213629
-0.0202517
-4.71823
-7.23219
-6.5371
-4.86938
-3.3304
-2.10059
-1.28061
-0.738034
-0.415962
-0.2194
-0.110007
-0.0457308
-0.0114054
0.00843664
0.0187147
0.0246773
0.0276944
0.0294741
0.0303659
0.030915
0.0312133
0.0314054
0.0315247
0.0315916
0.0316511
0.0316866
0.0317423
0.0317809
0.0318364
0.0318566
0.0318945
0.031907
0.0319453
0.0319629
0.0320123
0.0320377
0.0320762
0.0320764
0.0320967
0.0321013
0.0321359
0.0321572
0.0321993
0.0322174
0.0322443
0.0322374
0.032245
0.0322382
0.0322554
0.0322579
0.0322694
0.0322656
0.0322729
0.0322578
0.0322477
0.0322216
0.0322114
0.0322057
0.032219
0.0322154
0.0322078
0.0321771
0.0321418
0.0320899
0.0320486
0.032018
0.03201
0.031992
0.031972
0.0319482
0.0319335
0.0319029
0.0318509
0.0317867
0.0317424
0.0317119
0.0316833
0.0316383
0.0315849
0.0315254
0.0314664
0.0314011
0.0313325
0.0312721
0.0312214
0.0311593
0.0310801
0.0309885
0.0308881
0.0307554
0.0305602
0.0302689
0.0298442
0.0292079
0.0283283
0.0272078
0.026144
0.0227426
0.00658892
-0.0600508
-7.85748
-12.0148
-10.8568
-8.08399
-5.52875
-3.48578
-2.12476
-1.22392
-0.689739
-0.363634
-0.182344
-0.0758494
-0.0190742
0.0137567
0.0307241
0.0405659
0.0455222
0.0484459
0.0498908
0.0507756
0.0512304
0.0515219
0.0516852
0.0517813
0.0518525
0.0518962
0.0519539
0.0519946
0.0520502
0.0520711
0.0521094
0.0521228
0.0521624
0.0521812
0.0522302
0.0522549
0.0522921
0.0522917
0.0523114
0.0523167
0.0523527
0.052376
0.0524196
0.0524385
0.0524653
0.0524578
0.0524644
0.0524571
0.0524738
0.0524761
0.0524876
0.0524839
0.0524911
0.0524755
0.0524643
0.0524381
0.0524284
0.0524231
0.0524366
0.0524329
0.0524249
0.0523938
0.0523579
0.0523058
0.0522647
0.0522342
0.0522259
0.0522074
0.052187
0.0521634
0.0521487
0.0521181
0.0520665
0.0520027
0.0519589
0.0519285
0.0518997
0.0518549
0.0518012
0.0517414
0.0516817
0.051616
0.0515474
0.0514868
0.051435
0.0513696
0.0512838
0.0511789
0.0510544
0.0508776
0.0506042
0.0501727
0.0495105
0.0484875
0.0470635
0.0452562
0.0435687
0.0381159
0.0119396
-0.0976715
-10.9866
-16.7384
-15.1187
-11.2509
-7.69417
-4.84825
-2.9547
-1.70072
-0.95815
-0.504569
-0.25277
-0.104776
-0.0260144
0.0195824
0.0430954
0.0567523
0.0636051
0.0676555
0.0696411
0.0708573
0.071465
0.0718547
0.0720611
0.0721861
0.0722685
0.0723203
0.0723799
0.0724226
0.072478
0.0724997
0.0725383
0.0725526
0.0725936
0.0726137
0.0726621
0.0726859
0.0727219
0.072721
0.0727406
0.0727466
0.072784
0.0728091
0.0728541
0.0728738
0.0729006
0.0728927
0.0728984
0.0728905
0.0729065
0.0729085
0.0729197
0.0729159
0.0729228
0.0729067
0.0728946
0.0728688
0.0728598
0.0728552
0.0728688
0.0728649
0.0728562
0.0728246
0.0727881
0.0727359
0.072695
0.0726648
0.0726563
0.0726372
0.0726165
0.0725929
0.072578
0.0725472
0.0724959
0.0724326
0.0723893
0.072359
0.0723301
0.0722855
0.0722317
0.0721716
0.0721112
0.0720453
0.0719769
0.071916
0.071863
0.0717944
0.0717021
0.0715843
0.0714361
0.0712161
0.0708664
0.0702981
0.0694036
0.0680005
0.066038
0.0635461
0.0612455
0.0539414
0.0187516
-0.131701
-14.0998
-21.3785
-19.2997
-14.3513
-9.81372
-6.17911
-3.7649
-2.16493
-1.21913
-0.640937
-0.320555
-0.132052
-0.0319472
0.0261087
0.0559685
0.0733523
0.0820425
0.0871957
0.0897051
0.0912466
0.0920022
0.0924886
0.0927363
0.0928899
0.092983
0.093043
0.0931043
0.0931487
0.0932038
0.0932261
0.0932651
0.0932803
0.0933226
0.093344
0.0933917
0.0934146
0.0934494
0.0934483
0.093468
0.0934748
0.0935135
0.0935404
0.0935866
0.093607
0.0936338
0.0936259
0.0936308
0.0936224
0.0936374
0.0936388
0.0936496
0.0936454
0.0936518
0.0936353
0.0936227
0.0935975
0.0935897
0.0935857
0.0935993
0.0935951
0.0935857
0.0935534
0.0935162
0.093464
0.0934235
0.0933936
0.0933849
0.0933652
0.0933443
0.0933206
0.0933053
0.093274
0.093223
0.0931603
0.0931175
0.0930873
0.0930583
0.093014
0.0929601
0.0929
0.092839
0.0927728
0.0927046
0.0926435
0.0925893
0.0925175
0.092419
0.0922887
0.0921175
0.0918556
0.0914323
0.0907316
0.0896119
0.0878383
0.0853455
0.0821719
0.0792709
0.0703782
0.027536
-0.160787
-17.1898
-25.9095
-23.3767
-17.3665
-11.8747
-7.46963
-4.55
-2.61313
-1.47069
-0.771513
-0.385
-0.157238
-0.0366049
0.0335242
0.0694785
0.0904788
0.100931
0.107157
0.110169
0.112028
0.112925
0.113506
0.113793
0.113975
0.114078
0.114146
0.114209
0.114255
0.114309
0.114332
0.114372
0.114388
0.114431
0.114454
0.114501
0.114523
0.114557
0.114556
0.114576
0.114583
0.114623
0.114652
0.114699
0.11472
0.114747
0.114739
0.114744
0.114735
0.114749
0.114749
0.114759
0.114754
0.11476
0.114743
0.11473
0.114706
0.1147
0.114697
0.11471
0.114706
0.114695
0.114662
0.114624
0.114572
0.114532
0.114503
0.114494
0.114474
0.114452
0.114428
0.114413
0.114381
0.11433
0.114268
0.114226
0.114195
0.114166
0.114122
0.114069
0.114008
0.113947
0.113881
0.113813
0.113751
0.113696
0.113621
0.113517
0.113374
0.113181
0.112879
0.112385
0.111558
0.110222
0.10809
0.105078
0.101226
0.0977369
0.0875648
0.0387321
-0.183662
-20.2465
-30.3045
-27.3268
-20.2779
-13.8647
-8.71132
-5.30482
-3.04203
-1.71095
-0.895133
-0.445442
-0.179915
-0.0397342
0.0420097
0.0837548
0.108241
0.120365
0.127629
0.131116
0.133284
0.134314
0.134988
0.135312
0.135521
0.135634
0.13571
0.135774
0.135821
0.135875
0.135898
0.135938
0.135955
0.136
0.136024
0.13607
0.136091
0.136123
0.136123
0.136143
0.136152
0.136193
0.136223
0.136271
0.136293
0.13632
0.136313
0.136317
0.136307
0.13632
0.136319
0.136328
0.136323
0.136328
0.13631
0.136298
0.136275
0.13627
0.136268
0.136281
0.136276
0.136264
0.13623
0.136192
0.13614
0.136101
0.136072
0.136062
0.136042
0.13602
0.135996
0.13598
0.135947
0.135896
0.135835
0.135793
0.135763
0.135734
0.13569
0.135637
0.135577
0.135515
0.135448
0.135381
0.135319
0.135263
0.135185
0.135075
0.134921
0.134706
0.134366
0.133806
0.132859
0.131318
0.128842
0.125323
0.120798
0.116731
0.105616
0.0526895
-0.199176
-23.2568
-34.5356
-31.1273
-23.0675
-15.7717
-9.89597
-6.02445
-3.44851
-1.93812
-1.0107
-0.50127
-0.199691
-0.0410983
0.0517358
0.0989201
0.126742
0.140433
0.148695
0.152626
0.155093
0.156248
0.157011
0.157369
0.157606
0.157727
0.15781
0.157875
0.157924
0.157976
0.158001
0.158041
0.158059
0.158105
0.15813
0.158175
0.158195
0.158226
0.158226
0.158248
0.158258
0.1583
0.158331
0.15838
0.158402
0.15843
0.158423
0.158427
0.158416
0.158428
0.158426
0.158434
0.158427
0.158431
0.158414
0.158401
0.15838
0.158377
0.158376
0.158389
0.158383
0.15837
0.158335
0.158296
0.158244
0.158206
0.158177
0.158168
0.158147
0.158125
0.158101
0.158083
0.158049
0.157999
0.157938
0.157897
0.157867
0.157838
0.157795
0.157742
0.157682
0.157619
0.157553
0.157486
0.157424
0.157366
0.157286
0.157171
0.157006
0.156771
0.156395
0.155773
0.154714
0.152979
0.150176
0.146167
0.140974
0.136335
0.124617
0.0696523
-0.206324
-26.2032
-38.5731
-34.7556
-25.7176
-17.5842
-11.0157
-6.70423
-3.82965
-2.15057
-1.11721
-0.551919
-0.216205
-0.0404794
0.0628622
0.115089
0.146082
0.161221
0.170436
0.174777
0.177532
0.1788
0.17965
0.180038
0.180302
0.180431
0.180522
0.180588
0.180637
0.180688
0.180713
0.180754
0.180774
0.18082
0.180846
0.180891
0.180909
0.18094
0.180941
0.180964
0.180974
0.181017
0.181049
0.181098
0.181121
0.181149
0.181143
0.181147
0.181136
0.181146
0.181143
0.18115
0.181142
0.181144
0.181127
0.181115
0.181096
0.181095
0.181095
0.181108
0.181101
0.181087
0.181051
0.18101
0.180959
0.180921
0.180894
0.180884
0.180863
0.180841
0.180816
0.180797
0.180762
0.180712
0.180652
0.180611
0.180581
0.180552
0.18051
0.180457
0.180397
0.180334
0.180268
0.180201
0.180139
0.180081
0.179997
0.179878
0.179703
0.17945
0.17904
0.178361
0.177198
0.175284
0.172172
0.167692
0.161837
0.156627
0.144629
0.0897461
-0.204286
-29.0625
-42.3864
-38.1897
-28.2109
-19.291
-12.0631
-7.33983
-4.18274
-2.34682
-1.21374
-0.596887
-0.229128
-0.037681
0.0755358
0.132369
0.166354
0.182809
0.19293
0.197642
0.200673
0.202041
0.202976
0.20339
0.203681
0.203816
0.203915
0.203981
0.204031
0.204081
0.204106
0.204148
0.204169
0.204216
0.204243
0.204286
0.204303
0.204333
0.204336
0.20436
0.204371
0.204415
0.204447
0.204497
0.20452
0.204549
0.204544
0.204548
0.204536
0.204545
0.20454
0.204546
0.204536
0.204537
0.20452
0.204509
0.204492
0.204494
0.204494
0.204507
0.204499
0.204484
0.204446
0.204405
0.204354
0.204318
0.20429
0.204281
0.204259
0.204237
0.204211
0.204192
0.204155
0.204105
0.204046
0.204006
0.203976
0.203946
0.203905
0.203852
0.203793
0.20373
0.203663
0.203598
0.203535