/*--------------------------------*- C++ -*----------------------------------*\
| =========                 |                                                 |
| \\      /  F ield         | OpenFOAM: The Open Source CFD Toolbox           |
|  \\    /   O peration     | Version:  v1906                                 |
|   \\  /    A nd           | Web:      www.OpenFOAM.com                      |
|    \\/     M anipulation  |                                                 |
\*---------------------------------------------------------------------------*/
FoamFile
{
    version     2.0;
    format      ascii;
    class       volScalarField;
    location    "0.5";
    object      pB;
}
// * * * * * * * * * * * * * * * * * * * * * * * * * * * * * * * * * * * * * //

dimensions      [1 1 -3 0 0 -1 0];


internalField   nonuniform List<scalar> 
4000
(
29.6067
68.086
87.0211
92.3701
89.3884
81.1066
70.4131
59.0969
48.3263
38.6872
30.4288
23.5725
18.0198
13.6106
10.1659
7.51011
5.48515
3.95506
2.8074
1.9518
1.31709
0.848143
0.502691
0.248789
0.0624826
-0.0740202
-0.173908
-0.246935
-0.300278
-0.339236
-0.367657
-0.388411
-0.403552
-0.414618
-0.422693
-0.428603
-0.432904
-0.436055
-0.438322
-0.439968
-0.441126
-0.441943
-0.442483
-0.442843
-0.443048
-0.443165
-0.443193
-0.44319
-0.443141
-0.44309
-0.443022
-0.442973
-0.442921
-0.442899
-0.442881
-0.442894
-0.44291
-0.442949
-0.442981
-0.443028
-0.443056
-0.443091
-0.443098
-0.4431
-0.443062
-0.44301
-0.442913
-0.442797
-0.442637
-0.442456
-0.442239
-0.442007
-0.441748
-0.441489
-0.441206
-0.440918
-0.440583
-0.440196
-0.439687
-0.439011
-0.43806
-0.436738
-0.434881
-0.432324
-0.428825
-0.424109
-0.417817
-0.409556
-0.398893
-0.385501
-0.369349
-0.351177
-0.333294
-0.320855
-0.323546
-0.356033
-0.433089
-0.549941
-0.633145
-0.486155
33.0784
68.5619
86.4053
91.5552
88.579
80.4179
69.858
58.6667
47.9995
38.444
30.2512
23.4457
17.9318
13.5519
10.129
7.48949
5.47642
3.95501
2.8137
1.96272
1.33139
0.864892
0.521226
0.268626
0.0832734
-0.0525308
-0.151907
-0.22456
-0.277628
-0.316384
-0.344658
-0.365304
-0.380365
-0.391373
-0.399405
-0.405285
-0.409563
-0.412699
-0.414956
-0.416595
-0.417747
-0.418561
-0.419098
-0.419456
-0.419657
-0.419771
-0.419796
-0.419789
-0.419736
-0.419683
-0.419612
-0.419561
-0.419508
-0.419486
-0.419468
-0.419482
-0.419499
-0.419541
-0.419576
-0.419627
-0.419659
-0.419699
-0.419709
-0.419714
-0.419679
-0.419629
-0.419532
-0.419416
-0.419253
-0.419069
-0.418845
-0.418607
-0.418342
-0.418077
-0.417791
-0.417502
-0.417168
-0.416787
-0.416285
-0.41562
-0.414681
-0.413372
-0.411529
-0.408989
-0.405507
-0.400816
-0.394558
-0.38635
-0.375771
-0.362511
-0.346558
-0.328673
-0.311148
-0.299015
-0.301495
-0.331979
-0.402579
-0.504341
-0.564918
-0.419048
35.6856
69.0248
85.5292
90.3319
87.3189
79.3045
68.9326
57.9292
47.4258
38.0075
29.926
23.209
17.7642
13.4376
10.0553
7.4463
5.45603
3.95155
2.82275
1.98099
1.35644
0.894904
0.554876
0.304943
0.121549
-0.012819
-0.111143
-0.183024
-0.235526
-0.273868
-0.301837
-0.322261
-0.337159
-0.348048
-0.355993
-0.36181
-0.366044
-0.369147
-0.371382
-0.373006
-0.374147
-0.374954
-0.375484
-0.375837
-0.376032
-0.37614
-0.376159
-0.376146
-0.376087
-0.376029
-0.375954
-0.3759
-0.375845
-0.375821
-0.375803
-0.375819
-0.375838
-0.375885
-0.375925
-0.375982
-0.376021
-0.376068
-0.376084
-0.376095
-0.376064
-0.376018
-0.375922
-0.375804
-0.375636
-0.375446
-0.375212
-0.374966
-0.37469
-0.374417
-0.374124
-0.373834
-0.373504
-0.373132
-0.372645
-0.371998
-0.371081
-0.369796
-0.367981
-0.365471
-0.362026
-0.357383
-0.351192
-0.343083
-0.33265
-0.319609
-0.303968
-0.286495
-0.269426
-0.257527
-0.25925
-0.286047
-0.346493
-0.426671
-0.459281
-0.314765
36.7243
69.0003
84.2199
88.577
85.5049
77.6732
67.5541
56.8116
46.5424
37.3238
29.4064
22.8214
17.4807
13.2349
9.91452
7.35251
5.3975
3.9193
2.81003
1.9827
1.36877
0.915054
0.580762
0.335038
0.154736
0.0226353
-0.0740261
-0.14469
-0.196298
-0.233986
-0.261476
-0.281549
-0.29619
-0.306891
-0.314698
-0.320417
-0.32458
-0.327632
-0.329833
-0.331433
-0.332556
-0.33335
-0.33387
-0.334214
-0.3344
-0.3345
-0.33451
-0.334488
-0.334422
-0.334357
-0.334275
-0.334217
-0.334158
-0.334132
-0.334114
-0.334132
-0.334155
-0.334208
-0.334255
-0.334322
-0.334371
-0.334427
-0.334453
-0.334472
-0.334447
-0.334404
-0.334309
-0.334189
-0.334015
-0.333816
-0.33357
-0.33331
-0.33302
-0.332735
-0.332435
-0.332143
-0.331819
-0.33146
-0.330993
-0.330374
-0.329489
-0.328242
-0.326468
-0.324006
-0.320619
-0.316051
-0.309964
-0.302004
-0.29179
-0.279062
-0.263853
-0.246923
-0.230394
-0.218626
-0.218977
-0.240346
-0.287046
-0.339964
-0.340056
-0.192969
36.3751
68.2233
82.394
86.2879
83.1585
75.5438
65.736
55.3212
45.352
36.3924
28.6899
22.279
17.0764
12.9384
9.70092
7.202
5.2945
3.85185
2.76903
1.96129
1.36181
0.918722
0.592246
0.35226
0.176173
0.0471646
-0.0472306
-0.116235
-0.166626
-0.203423
-0.230261
-0.249856
-0.264148
-0.274592
-0.282214
-0.287798
-0.291865
-0.294848
-0.297001
-0.298567
-0.299666
-0.300443
-0.300949
-0.301281
-0.301456
-0.301544
-0.301543
-0.301511
-0.301434
-0.30136
-0.30127
-0.301206
-0.301142
-0.301115
-0.301097
-0.301117
-0.301144
-0.301204
-0.301261
-0.301339
-0.3014
-0.301469
-0.301506
-0.301535
-0.301519
-0.30148
-0.301387
-0.301264
-0.301083
-0.300871
-0.30061
-0.300333
-0.300027
-0.299728
-0.299419
-0.299125
-0.298809
-0.298466
-0.298027
-0.297442
-0.2966
-0.295401
-0.293683
-0.291286
-0.287978
-0.283512
-0.277566
-0.269805
-0.259875
-0.247547
-0.232872
-0.216586
-0.200645
-0.188872
-0.187288
-0.20186
-0.232378
-0.254956
-0.220393
-0.0688079
35.075
66.636
80.0025
83.4714
80.3072
72.9448
63.5025
53.4767
43.8688
35.2242
27.7851
21.5887
16.557
12.5528
9.41864
6.99853
5.15056
3.75253
2.70296
1.91988
1.33862
0.908943
0.59233
0.35959
0.188822
0.0637162
-0.0278191
-0.0947292
-0.143586
-0.17926
-0.205276
-0.224269
-0.238121
-0.248244
-0.255631
-0.261045
-0.264991
-0.267887
-0.269979
-0.271502
-0.272571
-0.273326
-0.273815
-0.274132
-0.274293
-0.274367
-0.274354
-0.274308
-0.274219
-0.274134
-0.274035
-0.273963
-0.273894
-0.273864
-0.273846
-0.273869
-0.273902
-0.27397
-0.274038
-0.274128
-0.274204
-0.274286
-0.274338
-0.274378
-0.274371
-0.274339
-0.274248
-0.274121
-0.273931
-0.273706
-0.273427
-0.273131
-0.272805
-0.27249
-0.272171
-0.271876
-0.271569
-0.271247
-0.27084
-0.270297
-0.269506
-0.268367
-0.266719
-0.264402
-0.261194
-0.256859
-0.251089
-0.243575
-0.233992
-0.22214
-0.208088
-0.192525
-0.177195
-0.165288
-0.161331
-0.168204
-0.181284
-0.172537
-0.103206
0.0512683
33.1795
64.2874
77.0308
80.139
76.9771
69.9049
60.8784
51.2982
42.1087
33.8316
26.7018
20.7582
15.9288
12.0834
9.07228
6.74619
4.96939
3.62483
2.61515
1.86168
1.30231
0.888766
0.584018
0.359995
0.195627
0.0752145
-0.0128819
-0.0772743
-0.124288
-0.158612
-0.183642
-0.201912
-0.215236
-0.224972
-0.232079
-0.23729
-0.24109
-0.243881
-0.2459
-0.247371
-0.248403
-0.249131
-0.2496
-0.249899
-0.250044
-0.250102
-0.250073
-0.250013
-0.249911
-0.249813
-0.249704
-0.249623
-0.249549
-0.249514
-0.249496
-0.249522
-0.249561
-0.249638
-0.249719
-0.249823
-0.249915
-0.250013
-0.250079
-0.250133
-0.250137
-0.250111
-0.250021
-0.24989
-0.249691
-0.249451
-0.249154
-0.248836
-0.24849
-0.248157
-0.247828
-0.247531
-0.247236
-0.246938
-0.246567
-0.246073
-0.245342
-0.244272
-0.242705
-0.240486
-0.237398
-0.233219
-0.227662
-0.22044
-0.211261
-0.199956
-0.186601
-0.171825
-0.157124
-0.14499
-0.138399
-0.13718
-0.132638
-0.0933044
0.00894766
0.162372
30.9349
61.2726
73.4917
76.3073
73.1932
66.451
57.8877
48.8057
40.0871
32.2265
25.449
19.7947
15.1972
11.5347
8.66527
6.4478
4.75338
3.47078
2.5074
1.78834
1.25442
0.859655
0.568718
0.354841
0.197919
0.0829664
-0.00113073
-0.0625957
-0.107467
-0.140224
-0.164107
-0.181539
-0.194249
-0.203538
-0.210318
-0.215293
-0.218923
-0.221593
-0.223526
-0.224937
-0.225926
-0.226622
-0.227067
-0.227345
-0.227472
-0.227513
-0.227468
-0.227391
-0.227275
-0.227164
-0.227043
-0.226953
-0.226872
-0.226833
-0.226814
-0.226843
-0.226889
-0.226976
-0.227069
-0.227189
-0.227298
-0.227412
-0.227495
-0.227563
-0.227579
-0.227559
-0.227472
-0.227337
-0.227128
-0.226872
-0.226554
-0.226213
-0.225846
-0.225495
-0.225155
-0.224859
-0.224577
-0.224304
-0.223975
-0.223535
-0.22287
-0.22188
-0.220406
-0.2183
-0.215352
-0.211356
-0.206043
-0.199157
-0.190436
-0.179739
-0.167148
-0.153216
-0.139167
-0.126775
-0.117484
-0.108271
-0.0868576
-0.0192268
0.112269
0.259961
28.5026
57.7003
69.4176
71.9993
68.9812
62.6095
54.5545
46.019
37.8201
30.4213
24.0361
18.7051
14.3678
10.9105
8.20074
6.10578
4.50441
3.29188
2.38093
1.70087
1.19584
0.822376
0.547121
0.344765
0.196298
0.0875418
0.00798238
-0.0501622
-0.0926046
-0.123585
-0.146168
-0.16265
-0.174666
-0.183448
-0.18986
-0.194566
-0.198004
-0.200536
-0.202372
-0.203714
-0.204654
-0.205314
-0.205731
-0.205987
-0.206094
-0.206115
-0.206053
-0.205959
-0.205828
-0.205702
-0.20557
-0.205468
-0.20538
-0.205338
-0.205318
-0.205349
-0.205402
-0.205499
-0.205606
-0.205741
-0.205868
-0.206
-0.2061
-0.206183
-0.206211
-0.206199
-0.206114
-0.205974
-0.205755
-0.205482
-0.205144
-0.20478
-0.20439
-0.204021
-0.203671
-0.203375
-0.203108
-0.202864
-0.202579
-0.202198
-0.201606
-0.200704
-0.199335
-0.197356
-0.194568
-0.190778
-0.185744
-0.179234
-0.17102
-0.160989
-0.14922
-0.136185
-0.122825
-0.110209
-0.0983491
-0.0816897
-0.0449923
0.0472848
0.202845
0.340488
25.9825
53.6755
64.8541
67.2441
64.3685
58.4076
50.9032
42.9587
35.324
28.4287
22.4732
17.4972
13.4461
10.2153
7.68194
5.72257
4.22434
3.08959
2.23688
1.60018
1.12727
0.777521
0.519728
0.330203
0.19115
0.0892925
0.0147835
-0.0396668
-0.0794079
-0.108413
-0.129553
-0.144978
-0.156223
-0.164442
-0.170444
-0.174853
-0.178078
-0.180456
-0.182183
-0.183448
-0.184333
-0.184953
-0.18534
-0.18557
-0.185655
-0.185657
-0.185576
-0.185464
-0.185317
-0.185176
-0.185031
-0.184919
-0.184824
-0.184776
-0.184756
-0.184789
-0.184849
-0.184956
-0.185077
-0.185228
-0.185372
-0.185522
-0.18564
-0.185739
-0.185779
-0.185775
-0.185693
-0.185549
-0.185318
-0.185029
-0.184669
-0.184283
-0.183871
-0.183484
-0.183125
-0.18283
-0.182578
-0.182366
-0.182128
-0.18181
-0.181297
-0.18049
-0.179237
-0.177398
-0.174788
-0.17123
-0.166503
-0.160408
-0.152747
-0.143434
-0.132542
-0.120453
-0.107834
-0.0950959
-0.0809798
-0.0578246
-0.00816316
0.104028
0.277404
0.401656
23.4327
49.2914
59.8533
62.076
59.3845
53.8731
46.9589
39.6462
32.6162
26.2626
20.7707
16.1788
12.4383
9.45375
7.11235
5.30082
3.91516
2.8654
2.07639
1.48714
1.04941
0.725643
0.486983
0.311519
0.182784
0.0884867
0.0195112
-0.0308928
-0.067676
-0.0945189
-0.114079
-0.12835
-0.138751
-0.146355
-0.151909
-0.155993
-0.158983
-0.161194
-0.162802
-0.163981
-0.164806
-0.165381
-0.165735
-0.165938
-0.166
-0.16598
-0.16588
-0.165751
-0.165587
-0.165431
-0.165273
-0.16515
-0.165047
-0.164995
-0.164973
-0.165009
-0.165075
-0.165192
-0.165326
-0.165493
-0.165655
-0.165823
-0.165959
-0.166073
-0.166127
-0.16613
-0.16605
-0.165902
-0.165661
-0.165355
-0.164975
-0.164566
-0.164132
-0.163728
-0.16336
-0.163069
-0.162834
-0.162655
-0.162467
-0.162215
-0.161786
-0.161081
-0.159952
-0.158267
-0.155852
-0.152547
-0.148158
-0.142513
-0.135449
-0.126898
-0.11693
-0.105835
-0.0940244
-0.0813318
-0.0654391
-0.0370826
0.0226452
0.149246
0.333558
0.442297
20.8845
44.6267
54.47
56.5328
54.0606
49.0345
42.7471
36.1033
29.7147
23.9373
18.9399
14.7589
11.3511
8.63075
6.49577
4.84335
3.57902
2.62092
1.90067
1.36268
0.962967
0.667284
0.449313
0.289055
0.171476
0.0853533
0.0223599
-0.0236701
-0.0572571
-0.0817646
-0.0996188
-0.112643
-0.122134
-0.129074
-0.134144
-0.137878
-0.140615
-0.142643
-0.144122
-0.145209
-0.145968
-0.146495
-0.146812
-0.146987
-0.147025
-0.146983
-0.146864
-0.146716
-0.146535
-0.146365
-0.146194
-0.14606
-0.145948
-0.145891
-0.145868
-0.145906
-0.145979
-0.146105
-0.146252
-0.146434
-0.146613
-0.1468
-0.146953
-0.147083
-0.147149
-0.147161
-0.147083
-0.14693
-0.146679
-0.146358
-0.145958
-0.145527
-0.145073
-0.144653
-0.144278
-0.14399
-0.143774
-0.143629
-0.143492
-0.143309
-0.142968
-0.142371
-0.141375
-0.139855
-0.137652
-0.134622
-0.130597
-0.125436
-0.119005
-0.111258
-0.102253
-0.0921995
-0.0812825
-0.0688611
-0.0518088
-0.0198084
0.0466834
0.181718
0.369853
0.462183
18.3536
39.7455
48.758
50.6545
48.43
43.9216
38.2942
32.3526
26.6382
21.4678
16.9927
13.2465
10.1915
7.75175
5.83625
4.35323
3.21819
2.35787
1.711
1.22776
0.86867
0.603005
0.40715
0.263147
0.157495
0.0801096
0.0235093
-0.017847
-0.0480192
-0.0700322
-0.086065
-0.0977587
-0.106279
-0.11251
-0.117065
-0.120424
-0.12289
-0.124724
-0.126064
-0.127051
-0.127739
-0.128215
-0.128494
-0.128637
-0.128651
-0.128587
-0.128449
-0.128282
-0.128086
-0.1279
-0.127716
-0.127571
-0.127451
-0.127389
-0.127364
-0.127405
-0.127483
-0.127618
-0.127778
-0.127974
-0.12817
-0.128373
-0.128544
-0.128689
-0.128767
-0.128787
-0.128712
-0.128555
-0.128294
-0.127958
-0.12754
-0.127088
-0.126615
-0.126181
-0.1258
-0.125518
-0.125322
-0.125211
-0.125128
-0.125016
-0.124766
-0.124281
-0.123425
-0.122081
-0.120103
-0.117368
-0.113733
-0.109085
-0.103319
-0.0964098
-0.0884058
-0.0794424
-0.0695193
-0.0576402
-0.0401444
-0.00622832
0.0634975
0.200811
0.385758
0.46185
15.8458
34.6992
42.7685
44.4824
42.527
38.5648
33.627
28.4171
23.406
18.8698
14.9415
11.6513
8.96706
6.82245
5.13814
3.83374
2.83514
2.07809
1.50879
1.08343
0.767301
0.533398
0.360947
0.234147
0.141116
0.0729754
0.0231387
-0.0132739
-0.0398348
-0.0592103
-0.0733176
-0.0836051
-0.091099
-0.0965817
-0.100592
-0.103555
-0.105735
-0.107363
-0.108555
-0.109437
-0.11005
-0.110471
-0.110708
-0.11082
-0.110808
-0.110723
-0.110565
-0.110381
-0.110168
-0.109968
-0.109772
-0.109616
-0.109488
-0.109421
-0.109395
-0.109436
-0.109519
-0.109663
-0.109833
-0.110043
-0.110255
-0.110475
-0.110662
-0.110821
-0.110912
-0.110939
-0.110866
-0.110706
-0.110437
-0.110086
-0.10965
-0.10918
-0.108691
-0.108244
-0.10786
-0.107584
-0.107408
-0.107334
-0.107304
-0.107264
-0.107107
-0.106738
-0.106029
-0.104871
-0.103132
-0.100709
-0.097485
-0.0933752
-0.0883039
-0.0822627
-0.0752923
-0.0674685
-0.0586499
-0.047613
-0.0304454
0.00358177
0.0729574
0.206481
0.381601
0.442464
13.3621
29.5284
36.5488
38.0579
36.3869
32.9952
28.7729
24.3206
20.0377
16.1594
12.7992
9.98355
7.68555
5.84891
4.40604
3.28835
2.43249
1.78355
1.29548
0.930776
0.659691
0.459089
0.311181
0.202422
0.122626
0.0641781
0.0214322
-0.0097984
-0.0325745
-0.0491862
-0.0612764
-0.0700912
-0.0765107
-0.0812099
-0.0846495
-0.0871983
-0.0890784
-0.0904893
-0.0915261
-0.0922966
-0.0928298
-0.0931927
-0.0933882
-0.0934673
-0.0934291
-0.0933219
-0.0931455
-0.0929448
-0.092717
-0.0925027
-0.092294
-0.0921278
-0.0919926
-0.09192
-0.0918921
-0.0919346
-0.092022
-0.0921724
-0.0923532
-0.0925752
-0.0928011
-0.0930361
-0.0932391
-0.093412
-0.0935138
-0.0935479
-0.0934779
-0.093315
-0.0930372
-0.0926736
-0.0922232
-0.0917363
-0.0912327
-0.0907762
-0.0903896
-0.0901218
-0.0899679
-0.0899304
-0.089954
-0.0899865
-0.0899234
-0.0896743
-0.0891161
-0.0881519
-0.086664
-0.0845687
-0.0817748
-0.078226
-0.0738737
-0.0687266
-0.0628195
-0.0561834
-0.0485838
-0.0386995
-0.0226426
0.00970907
0.0752603
0.199253
0.358488
0.405692
10.9007
24.265
30.1426
31.4218
30.0458
27.2446
23.7599
20.087
16.5537
13.3531
10.5791
8.25371
6.35523
4.83744
3.64479
2.72074
2.01302
1.47632
1.07265
0.770979
0.546715
0.38074
0.258353
0.168356
0.102322
0.0539542
0.0185808
-0.00726269
-0.026105
-0.0398446
-0.0498391
-0.0571242
-0.0624279
-0.0663136
-0.0691607
-0.0712787
-0.0728466
-0.0740316
-0.0749064
-0.0755604
-0.0760102
-0.0763126
-0.0764639
-0.0765093
-0.0764453
-0.0763167
-0.0761225
-0.0759058
-0.0756637
-0.0754362
-0.0752161
-0.0750401
-0.0748976
-0.07482
-0.0747901
-0.074833
-0.0749238
-0.07508
-0.0752696
-0.0755023
-0.0757412
-0.0759899
-0.076207
-0.0763926
-0.0765049
-0.0765455
-0.076478
-0.0763126
-0.0760279
-0.0756534
-0.0751898
-0.074689
-0.0741736
-0.0737096
-0.073323
-0.0730648
-0.0729332
-0.0729323
-0.0730095
-0.0731143
-0.0731461
-0.0730183
-0.0726154
-0.0718514
-0.0706243
-0.06887
-0.0665228
-0.0635544
-0.0599421
-0.0557109
-0.050893
-0.0454895
-0.0392206
-0.0307903
-0.0165932
0.0124027
0.0709164
0.180172
0.318203
0.353609
8.45826
18.934
23.5896
24.6145
23.54
21.3453
18.6163
15.7408
12.9744
10.4679
8.29483
6.47264
4.98457
3.79462
2.85941
2.13471
1.57959
1.15859
0.841925
0.605256
0.42929
0.299041
0.202987
0.13235
0.0805176
0.0425496
0.0147824
-0.00550397
-0.020289
-0.0310668
-0.0389006
-0.0446089
-0.0487624
-0.0518097
-0.0540463
-0.0557199
-0.0569655
-0.0579169
-0.0586238
-0.0591568
-0.05952
-0.0597595
-0.0598655
-0.0598767
-0.0597869
-0.0596376
-0.0594266
-0.0591948
-0.0589395
-0.0586997
-0.0584692
-0.0582841
-0.0581349
-0.0580524
-0.0580204
-0.0580632
-0.0581564
-0.058317
-0.0585138
-0.0587557
-0.0590058
-0.0592665
-0.0594963
-0.0596932
-0.0598149
-0.0598615
-0.0597965
-0.0596291
-0.0593388
-0.0589552
-0.058481
-0.0579689
-0.0574446
-0.0569757
-0.0565913
-0.0563441
-0.0562353
-0.056271
-0.056401
-0.0565776
-0.0567039
-0.0566983
-0.0564537
-0.0558951
-0.0549367
-0.0535344
-0.0516479
-0.049276
-0.0464208
-0.0431235
-0.0394163
-0.0352852
-0.0304484
-0.0237467
-0.0120839
0.0120631
0.0607203
0.150744
0.2631
0.288604
6.03077
13.5552
16.9261
17.6753
16.906
15.33
13.3707
11.3066
9.32075
7.52109
5.96041
4.65144
3.58229
2.7272
2.05509
1.53423
1.13521
0.832589
0.604989
0.434875
0.308369
0.214708
0.145628
0.0948203
0.0575343
0.030218
0.0102407
-0.00435464
-0.0149853
-0.0227308
-0.0283528
-0.0324475
-0.0354243
-0.0376137
-0.0392252
-0.0404438
-0.041359
-0.0420706
-0.0426046
-0.0430128
-0.0432867
-0.0434615
-0.0435211
-0.043498
-0.0433827
-0.0432136
-0.0429868
-0.0427411
-0.0424738
-0.0422229
-0.0419829
-0.0417897
-0.0416343
-0.0415473
-0.0415129
-0.041555
-0.0416496
-0.0418133
-0.0420157
-0.042265
-0.0425245
-0.0427954
-0.0430359
-0.0432427
-0.0433727
-0.0434245
-0.0433618
-0.0431932
-0.0428987
-0.0425081
-0.0420258
-0.0415056
-0.0409754
-0.0405043
-0.0401243
-0.0398895
-0.0398041
-0.0398757
-0.0400576
-0.0403045
-0.0405244
-0.0406411
-0.0405564
-0.0402068
-0.0395234
-0.038482
-0.0370673
-0.0353045
-0.0332199
-0.0308703
-0.0282906
-0.0254641
-0.0221448
-0.0174023
-0.00883761
0.00922421
0.0457125
0.112862
0.196002
0.213314
3.61404
8.14493
10.1858
10.6425
10.1806
9.23174
8.05209
6.80945
5.61378
4.53001
3.58999
2.80144
2.15731
1.6421
1.23715
0.923357
0.682946
0.500646
0.363584
0.26114
0.184929
0.12848
0.0868332
0.0561941
0.0337028
0.01722
0.00516491
-0.00364313
-0.0100495
-0.0147123
-0.0180858
-0.0205404
-0.0223212
-0.0236388
-0.024615
-0.0253707
-0.0259495
-0.0264165
-0.0267738
-0.0270543
-0.0272366
-0.0273453
-0.0273578
-0.0273003
-0.0271603
-0.0269722
-0.0267308
-0.0264726
-0.0261946
-0.0259338
-0.0256856
-0.0254853
-0.0253244
-0.025233
-0.0251962
-0.025237
-0.0253321
-0.0254974
-0.0257037
-0.0259584
-0.0262253
-0.0265043
-0.0267538
-0.0269688
-0.0271057
-0.027162
-0.0271016
-0.0269323
-0.0266352
-0.0262398
-0.0257522
-0.025227
-0.024694
-0.0242237
-0.0238504
-0.0236294
-0.0235675
-0.0236745
-0.0239067
-0.024222
-0.0245337
-0.0247718
-0.0248473
-0.0247092
-0.0243051
-0.0236311
-0.0226965
-0.0215523
-0.020248
-0.0188556
-0.0174148
-0.0159161
-0.0141773
-0.0115673
-0.00652372
0.00452963
0.0271327
0.0687305
0.120088
0.130558
1.20378
2.71665
3.40014
3.55392
3.40019
3.08354
2.68961
2.27442
1.87476
1.51232
1.1979
0.934086
0.718644
0.546344
0.411006
0.306214
0.225932
0.16512
0.119486
0.0853832
0.0599703
0.0411085
0.0271725
0.0169066
0.00936014
0.00382049
-0.000232397
-0.00319496
-0.00533494
-0.00688455
-0.00798769
-0.00878635
-0.00935991
-0.00979727
-0.0101318
-0.0104198
-0.0106583
-0.0108776
-0.0110553
-0.011206
-0.0112951
-0.0113365
-0.0113016
-0.0112101
-0.011046
-0.0108401
-0.0105854
-0.0103162
-0.0100289
-0.00975974
-0.00950452
-0.00929805
-0.0091325
-0.00903718
-0.0089977
-0.00903654
-0.00913102
-0.00929659
-0.00950496
-0.00976315
-0.0100353
-0.0103204
-0.0105768
-0.010798
-0.0109406
-0.0110005
-0.0109422
-0.0107731
-0.0104748
-0.010077
-0.00958707
-0.00906
-0.00852758
-0.00806101
-0.00769662
-0.0074907
-0.00745256
-0.00759387
-0.00787444
-0.00825571
-0.00865689
-0.00901447
-0.00924962
-0.00932358
-0.00920136
-0.00889888
-0.00844986
-0.0079303
-0.0074123
-0.00698245
-0.00668632
-0.00652791
-0.00640669
-0.00603428
-0.0047719
-0.00129575
0.00636694
0.0207736
0.0387955
0.0432785
-1.20431
-2.71745
-3.40045
-3.55319
-3.39848
-3.08132
-2.68754
-2.27327
-1.87498
-1.51426
-1.20143
-0.939058
-0.724588
-0.552964
-0.417876
-0.313019
-0.232667
-0.1716
-0.125512
-0.0910495
-0.0654961
-0.0466456
-0.0327774
-0.0226015
-0.0151528
-0.00971239
-0.00573625
-0.00283388
-0.000693426
0.00088011
0.00205447
0.00291671
0.00355405
0.00399957
0.00430876
0.00449049
0.00459396
0.0046241
0.0046274
0.00460807
0.00461308
0.00463949
0.004722
0.00484699
0.00503421
0.00525672
0.00552324
0.00580203
0.00609702
0.00637312
0.00663394
0.0068454
0.00701483
0.00711375
0.00715604
0.00711976
0.00702693
0.00686258
0.0066539
0.00639427
0.00611899
0.00583002
0.00556894
0.0053432
0.00519646
0.00513375
0.00519004
0.00535835
0.00565608
0.00605401
0.0065434
0.00706895
0.00759752
0.00805744
0.00841068
0.00860027
0.0086147
0.00844029
0.00811359
0.00766924
0.00718175
0.00670736
0.00631448
0.00602904
0.00586886
0.005798
0.00575887
0.00565102
0.00538057
0.00484686
0.00399835
0.00281561
0.00131109
-0.000584985
-0.00318727
-0.00747726
-0.0151098
-0.0284473
-0.0442861
-0.0455073
-3.61456
-8.14571
-10.1861
-10.6418
-10.1789
-9.22957
-8.05008
-6.80835
-5.61404
-4.53197
-3.59354
-2.80642
-2.16325
-1.64871
-1.24401
-0.930152
-0.68967
-0.507117
-0.369605
-0.266805
-0.190455
-0.134018
-0.0924378
-0.0618882
-0.0394941
-0.0231098
-0.011131
-0.00238306
0.00402364
0.00870981
0.0121539
0.0146712
0.0165153
0.0178406
0.0187916
0.0194419
0.019887
0.0201665
0.0203513
0.0204638
0.0205634
0.0206577
0.0207875
0.0209454
0.0211547
0.0213925
0.0216694
0.0219562
0.0222573
0.0225387
0.0228037
0.0230189
0.0231914
0.0232935
0.0233388
0.0233057
0.0232155
0.0230538
0.0228466
0.0225875
0.0223113
0.0220207
0.0217571
0.0215288
0.0213794
0.0213148
0.0213692
0.0215359
0.0218315
0.0222272
0.0227131
0.0232338
0.0237552
0.0242056
0.0245455
0.0247177
0.0247086
0.0245025
0.0241323
0.0236282
0.0230581
0.0224704
0.0219227
0.021428
0.0209867
0.0205431
0.0200161
0.0192815
0.0182242
0.0167302
0.014743
0.01223
0.00912115
0.00500225
-0.0013671
-0.0132238
-0.0357928
-0.0763264
-0.125518
-0.132759
-6.03126
-13.556
-16.9264
-17.6745
-16.9044
-15.3279
-13.3688
-11.3056
-9.32109
-7.52311
-5.964
-4.65643
-3.58823
-2.73379
-2.06193
-1.54101
-1.14191
-0.839041
-0.611
-0.440537
-0.313896
-0.220247
-0.151232
-0.100513
-0.0633228
-0.0361037
-0.0162018
-0.00166629
0.00896437
0.0167322
0.0224234
0.0265793
0.029618
0.0318146
0.0334012
0.034516
0.0353
0.0358274
0.0361928
0.0364368
0.0366308
0.0367926
0.0369693
0.0371591
0.0373893
0.0376411
0.037927
0.0382201
0.0385256
0.0388107
0.0390783
0.0392962
0.0394709
0.0395759
0.0396242
0.0395948
0.0395084
0.0393506
0.0391466
0.0388901
0.0386151
0.0383251
0.0380612
0.0378324
0.0376818
0.037616
0.0376686
0.0378331
0.0381251
0.0385161
0.0389956
0.0395083
0.0400193
0.0404573
0.0407819
0.0409357
0.0409033
0.0406673
0.0402563
0.0396963
0.0390478
0.0383511
0.0376526
0.0369521
0.0362329
0.0354196
0.034408
0.0330505
0.0312117
0.0287649
0.0256507
0.0218297
0.0171666
0.0109447
0.00108222
-0.0177622
-0.0542084
-0.120304
-0.201311
-0.215459
-8.45872
-18.9347
-23.5898
-24.6138
-23.5384
-21.3433
-18.6145
-15.7399
-12.9749
-10.47
-8.29847
-6.47765
-4.99049
-3.80119
-2.86621
-2.14145
-1.58626
-1.16501
-0.847921
-0.610914
-0.434818
-0.304581
-0.208591
-0.13804
-0.0863019
-0.0484291
-0.0207361
-0.000509165
0.0142754
0.0250738
0.0329749
0.0387421
0.0429557
0.0460093
0.0482214
0.0497936
0.0509118
0.0516838
0.0522279
0.0526022
0.0528896
0.0531183
0.0533409
0.0535617
0.0538116
0.0540758
0.0543692
0.054667
0.0549753
0.0552624
0.0555312
0.0557505
0.0559267
0.056034
0.0560855
0.0560605
0.0559786
0.055826
0.0556269
0.0553749
0.0551033
0.0548161
0.054554
0.0543265
0.0541763
0.0541103
0.0541612
0.0543227
0.0546095
0.0549936
0.055464
0.0559656
0.0564631
0.0568859
0.0571933
0.0573279
0.0572728
0.0570086
0.05656
0.055948
0.0552259
0.0544251
0.0535809
0.0526796
0.0516875
0.0505097
0.0490196
0.0470467
0.0444354
0.0410474
0.0368234
0.031727
0.0255854
0.0174479
0.00452863
-0.0203703
-0.0689736
-0.157958
-0.268231
-0.290667
-10.9011
-24.2656
-30.1428
-31.4211
-30.0443
-27.2427
-23.7583
-20.0863
-16.5543
-13.3553
-10.5828
-8.25874
-6.36114
-4.84398
-3.65155
-2.72744
-2.01964
-1.48271
-1.07863
-0.776632
-0.552245
-0.386282
-0.263956
-0.174042
-0.108101
-0.0598259
-0.024525
0.00125974
0.0201009
0.033859
0.0439183
0.0512593
0.0566204
0.0605113
0.0633348
0.0653543
0.0667997
0.0678116
0.0685312
0.0690337
0.0694131
0.0697073
0.0699748
0.0702254
0.0704936
0.070769
0.0710683
0.0713693
0.0716787
0.071966
0.0722346
0.0724541
0.0726309
0.0727402
0.072795
0.0727748
0.0726984
0.0725523
0.0723595
0.0721138
0.0718476
0.0715654
0.0713072
0.0710829
0.0709345
0.0708691
0.0709184
0.0710762
0.0713564
0.0717314
0.0721901
0.0726776
0.0731587
0.0735639
0.0738524
0.0739671
0.0738899
0.0735995
0.0731166
0.072457
0.0716664
0.0707671
0.0697831
0.0686872
0.067429
0.0658945
0.0639348
0.0613572
0.0579862
0.0536727
0.0483609
0.0420305
0.0345075
0.0246985
0.00929895
-0.0204086
-0.078853
-0.187088
-0.323101
-0.355564
-13.3625
-29.529
-36.5489
-38.0572
-36.3855
-32.9935
-28.7715
-24.3201
-20.0385
-16.1617
-12.803
-9.9886
-7.69145
-5.8554
-4.41276
-3.295
-2.43907
-1.7899
-1.30144
-0.936424
-0.665223
-0.464634
-0.316784
-0.208105
-0.128397
-0.0700402
-0.027365
0.00380784
0.026582
0.0432096
0.0553615
0.0642285
0.0707023
0.0754054
0.0788221
0.0812761
0.0830397
0.0842852
0.0851759
0.0858037
0.086273
0.086631
0.086942
0.087221
0.0875063
0.0877914
0.0880952
0.0883977
0.0887066
0.0889927
0.0892595
0.0894781
0.0896548
0.0897658
0.0898238
0.0898089
0.0897388
0.0896001
0.089415
0.0891774
0.0889185
0.0886432
0.0883909
0.0881717
0.0880265
0.0879624
0.0880102
0.0881637
0.088436
0.0888
0.0892444
0.0897152
0.0901772
0.0905625
0.0908306
0.0909249
0.0908264
0.090512
0.0899982
0.0892955
0.0884418
0.0874502
0.0863331
0.0850502
0.0835345
0.0816531
0.0792357
0.0760673
0.0719532
0.0667337
0.0603607
0.0528442
0.0440525
0.032859
0.0156656
-0.0173486
-0.0828116
-0.205807
-0.363103
-0.407517
-15.8461
-34.6996
-42.7685
-44.4818
-42.5257
-38.5633
-33.6258
-28.4169
-23.4069
-18.8723
-14.9454
-11.6564
-8.97294
-6.8289
-5.1448
-3.84033
-2.84166
-2.08439
-1.51471
-1.08907
-0.772837
-0.538945
-0.36655
-0.239826
-0.14688
-0.0788266
-0.0290583
0.00729766
0.0338557
0.0532441
0.0674094
0.077745
0.0852897
0.0907745
0.0947626
0.0976353
0.0997059
0.101177
0.102234
0.102983
0.103539
0.103959
0.104312
0.104618
0.104919
0.105212
0.105519
0.105822
0.106129
0.106412
0.106676
0.106892
0.107068
0.10718
0.107242
0.107232
0.107169
0.107039
0.106863
0.106635
0.106385
0.106118
0.105874
0.105661
0.105521
0.105459
0.105505
0.105654
0.105917
0.106268
0.106696
0.107148
0.107588
0.107952
0.108198
0.108272
0.108153
0.107817
0.107275
0.106534
0.105623
0.104546
0.103303
0.101842
0.100079
0.0978628
0.0950023
0.0912606
0.0864235
0.0803216
0.0729176
0.0642673
0.0543286
0.0420633
0.0238359
-0.0107966
-0.0800618
-0.212616
-0.385887
-0.444136
-18.3538
-39.7458
-48.758
-50.6539
-48.4289
-43.9204
-38.2933
-32.3526
-26.6394
-21.4704
-16.9966
-13.2516
-10.1974
-7.75815
-5.84284
-4.35977
-3.22464
-2.36412
-1.7169
-1.2334
-0.87421
-0.608556
-0.412752
-0.26882
-0.163249
-0.0859484
-0.0294143
0.0118865
0.042055
0.0640779
0.0801646
0.0919016
0.100468
0.1067
0.111233
0.114506
0.116871
0.118559
0.119774
0.12064
0.12128
0.121759
0.122152
0.122484
0.122799
0.123099
0.123408
0.123709
0.124012
0.124292
0.124551
0.124765
0.124939
0.125053
0.125117
0.125114
0.125058
0.124937
0.12477
0.124553
0.124314
0.124058
0.123823
0.123619
0.123484
0.123424
0.12347
0.123613
0.123866
0.124203
0.124612
0.125042
0.12546
0.1258
0.126023
0.126077
0.125938
0.125583
0.125017
0.124243
0.12328
0.122124
0.120764
0.119134
0.117136
0.114599
0.111313
0.107019
0.101482
0.0945254
0.0861238
0.0763943
0.0654318
0.0524151
0.0339455
-0.0005115
-0.0701019
-0.206475
-0.389675
-0.463352
-20.8847
-44.6268
-54.4699
-56.5322
-54.0596
-49.0335
-42.7465
-36.1036
-29.7161
-23.9401
-18.9439
-14.764
-11.357
-8.6371
-6.50229
-4.84982
-3.58541
-2.62711
-1.90653
-1.36831
-0.968513
-0.672839
-0.454914
-0.294721
-0.177219
-0.0911784
-0.028249
0.0177267
0.0513093
0.0758235
0.093727
0.106789
0.116323
0.12326
0.128311
0.131963
0.134607
0.1365
0.137867
0.138844
0.139564
0.1401
0.14053
0.140885
0.141214
0.14152
0.141829
0.142128
0.142426
0.1427
0.142954
0.143164
0.143337
0.143451
0.143518
0.143521
0.143473
0.143361
0.143206
0.143001
0.142774
0.14253
0.142305
0.142111
0.141982
0.141926
0.14197
0.142108
0.14235
0.142671
0.14306
0.143467
0.143859
0.144175
0.144376
0.144409
0.144252
0.143879
0.143293
0.142489
0.141481
0.140254
0.138786
0.136998
0.134777
0.131937
0.128245
0.123422
0.117214
0.109433
0.10007
0.0893163
0.077448
0.0639879
0.0460559
0.0135848
-0.052744
-0.186871
-0.37337
-0.463498
-23.4327
-49.2914
-59.8531
-62.0754
-59.3836
-53.8723
-46.9586
-39.6468
-32.6179
-26.2655
-20.7748
-16.184
-12.4442
-9.46004
-7.11881
-5.30722
-3.92148
-2.87153
-2.08222
-1.49277
-1.05497
-0.731203
-0.492584
-0.317178
-0.188515
-0.0942973
-0.0253835
0.0249675
0.0617458
0.0885923
0.108197
0.1225
0.132938
0.140538
0.146073
0.150081
0.152987
0.155074
0.156583
0.157666
0.158461
0.15905
0.159515
0.159893
0.160232
0.160543
0.160852
0.161146
0.161439
0.161706
0.161954
0.162159
0.16233
0.162445
0.162515
0.162524
0.162484
0.162382
0.162238
0.162046
0.161832
0.161601
0.161389
0.161205
0.161084
0.161032
0.161075
0.161207
0.161437
0.161741
0.162108
0.162491
0.162857
0.163148
0.163325
0.163338
0.163165
0.162776
0.162174
0.161345
0.160297
0.159006
0.15744
0.155506
0.153078
0.149952
0.145877
0.140553
0.133706
0.125136
0.114851
0.103125
0.0904564
0.0768307
0.0601584
0.0314064
-0.0281289
-0.153857
-0.336649
-0.443415
-25.9825
-53.6754
-64.8538
-67.2436
-64.3678
-58.4071
-50.9032
-42.9596
-35.3259
-28.4318
-22.4774
-17.5023
-13.4519
-10.2216
-7.68833