/*--------------------------------*- C++ -*----------------------------------*\
| =========                 |                                                 |
| \\      /  F ield         | OpenFOAM: The Open Source CFD Toolbox           |
|  \\    /   O peration     | Version:  v1906                                 |
|   \\  /    A nd           | Web:      www.OpenFOAM.com                      |
|    \\/     M anipulation  |                                                 |
\*---------------------------------------------------------------------------*/
FoamFile
{
    version     2.0;
    format      ascii;
    class       surfaceScalarField;
    location    "0.5";
    object      phi;
}
// * * * * * * * * * * * * * * * * * * * * * * * * * * * * * * * * * * * * * //

dimensions      [0 3 -1 0 0 0 0];
oriented        oriented;


internalField   nonuniform List<scalar> 
7860
(
0.00223126
0.00276874
0.00192567
0.000305591
0.001894
3.16706e-05
0.00188824
5.76359e-06
0.00189244
-4.20047e-06
0.00189266
-2.14355e-07
0.00189232
3.32067e-07
0.00189092
1.40397e-06
0.00188962
1.30327e-06
0.00188838
1.23538e-06
0.00188739
9.90515e-07
0.00188659
8.00489e-07
0.00188598
6.1331e-07
0.00188551
4.6555e-07
0.00188517
3.44742e-07
0.00188491
2.5109e-07
0.00188474
1.76437e-07
0.00188461
1.2373e-07
0.00188453
8.65935e-08
0.00188447
5.78157e-08
0.00188443
3.75541e-08
0.0018844
2.46691e-08
0.00188439
1.72194e-08
0.00188438
1.15544e-08
0.00188437
6.72195e-09
0.00188437
3.43984e-09
0.00188436
2.40564e-09
0.00188436
2.53991e-09
0.00188436
1.6302e-09
0.00188436
3.62967e-10
0.00188436
3.12046e-10
0.00188436
3.05317e-10
0.00188436
4.21159e-10
0.00188436
2.20368e-10
0.00188436
2.35104e-11
0.00188436
-1.76805e-10
0.00188436
-1.17627e-10
0.00188436
1.65343e-10
0.00188436
1.4719e-10
0.00188436
-3.2975e-10
0.00188436
1.03868e-10
0.00188436
2.03188e-10
0.00188436
-3.33189e-11
0.00188436
-3.87557e-10
0.00188436
-7.87323e-12
0.00188436
2.76854e-10
0.00188436
2.35844e-10
0.00188436
-1.18136e-10
0.00188436
5.34524e-11
0.00188436
1.94922e-10
0.00188436
2.6725e-10
0.00188436
3.21667e-11
0.00188436
-1.73935e-11
0.00188436
-4.37549e-11
0.00188436
2.52907e-10
0.00188436
9.40114e-11
0.00188436
-9.04832e-12
0.00188436
-1.43343e-10
0.00188436
-1.63639e-11
0.00188436
6.72871e-12
0.00188436
-1.6486e-10
0.00188436
-3.19262e-10
0.00188436
-1.57957e-10
0.00188436
-2.34496e-10
0.00188436
-2.45173e-10
0.00188436
-4.06014e-10
0.00188436
-3.67374e-10
0.00188436
-3.78007e-10
0.00188436
-6.38503e-11
0.00188436
-2.33806e-10
0.00188436
-5.08851e-11
0.00188436
5.56283e-12
0.00188436
2.08966e-10
0.00188436
3.00994e-10
0.00188436
2.59351e-10
0.00188436
3.07666e-10
0.00188436
3.54624e-10
0.00188436
3.35613e-10
0.00188436
2.45933e-10
0.00188436
-1.68957e-11
0.00188436
8.11164e-11
0.00188436
1.06281e-10
0.00188436
6.52349e-11
0.00188436
5.61809e-11
0.00188436
7.54523e-10
0.00188436
1.42595e-09
0.00188435
2.24806e-09
0.00188435
3.76947e-09
0.00188434
6.25635e-09
0.00188433
9.38051e-09
0.00188432
1.37053e-08
0.0018843
1.83951e-08
0.00188428
2.21632e-08
0.00188426
2.01209e-08
0.00188425
1.30335e-08
0.00188421
3.38093e-08
0.001884
2.12532e-07
0.00188303
9.75384e-07
0.00188094
2.08848e-06
-2.26021e-06
0.00411241
0.00365632
0.00377999
0.000638014
0.00370326
0.000108402
0.00369281
1.62163e-05
0.00369759
-8.98355e-06
0.00369858
-1.20485e-06
0.00369796
9.543e-07
0.00369576
3.59876e-06
0.00369353
3.53782e-06
0.00369142
3.34007e-06
0.00368969
2.72172e-06
0.00368829
2.20343e-06
0.0036872
1.70464e-06
0.00368637
1.2986e-06
0.00368575
9.63313e-07
0.00368529
7.04233e-07
0.00368497
5.01067e-07
0.00368474
3.51806e-07
0.00368458
2.43236e-07
0.00368448
1.64194e-07
0.0036844
1.09974e-07
0.00368435
7.28303e-08
0.00368432
4.83971e-08
0.0036843
3.15606e-08
0.00368429
1.93666e-08
0.00368428
1.22269e-08
0.00368428
7.82211e-09
0.00368427
5.65292e-09
0.00368427
3.95868e-09
0.00368427
2.0781e-09
0.00368427
1.47469e-09
0.00368427
7.68589e-10
0.00368427
7.44517e-10
0.00368427
2.97678e-10
0.00368427
1.89636e-10
0.00368427
-2.57922e-10
0.00368427
-4.23879e-10
0.00368427
-1.45377e-10
0.00368427
4.51347e-10
0.00368427
-2.33615e-10
0.00368427
-1.37848e-10
0.00368427
7.94692e-11
0.00368427
1.20687e-10
0.00368427
-2.73996e-10
0.00368427
1.40267e-10
0.00368427
3.59357e-10
0.00368427
5.71209e-10
0.00368427
2.93378e-10
0.00368427
4.68849e-10
0.00368427
2.98833e-10
0.00368427
3.88338e-10
0.00368427
2.79784e-10
0.00368427
3.49757e-10
0.00368427
4.60779e-11
0.00368427
2.72716e-10
0.00368427
1.86406e-10
0.00368427
2.47975e-10
0.00368427
-6.96679e-11
0.00368427
-1.95237e-10
0.00368427
-1.56453e-10
0.00368427
-2.09115e-10
0.00368427
-7.06105e-10
0.00368427
-6.77545e-10
0.00368427
-8.15782e-10
0.00368427
-7.7845e-10
0.00368427
-1.04039e-09
0.00368427
-7.97094e-10
0.00368427
-8.33938e-10
0.00368427
-3.72454e-10
0.00368427
-4.17776e-10
0.00368427
-8.07196e-12
0.00368427
5.92924e-11
0.00368427
4.26742e-10
0.00368427
7.91658e-10
0.00368427
9.77349e-10
0.00368427
9.3941e-10
0.00368427
1.03021e-09
0.00368427
9.87065e-10
0.00368427
9.21322e-10
0.00368427
3.3546e-10
0.00368427
2.9498e-10
0.00368427
3.27321e-10
0.00368427
4.9709e-10
0.00368427
6.4739e-10
0.00368426
2.00968e-09
0.00368426
3.89973e-09
0.00368426
6.61192e-09
0.00368425
1.09054e-08
0.00368424
1.76644e-08
0.00368422
2.66106e-08
0.0036842
3.88362e-08
0.00368416
5.22729e-08
0.00368412
6.45169e-08
0.00368408
6.41569e-08
0.00368402
6.55689e-08
0.0036839
1.60024e-07
0.00368332
7.95209e-07
0.00368132
2.9717e-06
0.0036765
6.90835e-06
3.68941e-06
0.00489101
0.00376532
0.00465426
0.000874759
0.0045655
0.000197167
0.00455473
2.69831e-05
0.00455786
-1.21164e-05
0.00455933
-2.66972e-06
0.0045586
1.68396e-06
0.00455641
5.78223e-06
0.00455402
5.92918e-06
0.00455178
5.58252e-06
0.0045499
4.60573e-06
0.00454836
3.73459e-06
0.00454716
2.90442e-06
0.00454624
2.21983e-06
0.00454556
1.65316e-06
0.00454505
1.21083e-06
0.00454468
8.65864e-07
0.00454443
6.09562e-07
0.00454425
4.21139e-07
0.00454413
2.85443e-07
0.00454404
1.93019e-07
0.00454399
1.28284e-07
0.00454395
8.38618e-08
0.00454393
5.46084e-08
0.00454392
3.40825e-08
0.00454391
2.21909e-08
0.0045439
1.43143e-08
0.0045439
9.27392e-09
0.00454389
6.13628e-09
0.00454389
3.83775e-09
0.00454389
2.87127e-09
0.00454389
1.37795e-09
0.00454389
1.08837e-09
0.00454389
3.51275e-10
0.00454389
1.89353e-10
0.00454389
-4.2481e-10
0.00454389
-5.23236e-10
0.00454389
-4.90776e-10
0.00454389
4.65105e-10
0.00454389
-3.69954e-11
0.00454389
-2.29306e-10
0.00454389
-5.91751e-11
0.00454389
1.05133e-10
0.00454389
-1.74844e-10
0.00454389
4.37552e-10
0.00454389
6.80085e-10
0.00454389
9.87852e-10
0.00454389
6.83032e-10
0.00454389
9.32986e-10
0.00454389
5.78813e-10
0.00454389
5.30473e-10
0.00454389
4.1557e-10
0.00454389
6.37099e-10
0.00454389
2.27518e-10
0.00454389
3.61751e-10
0.00454389
2.34644e-10
0.00454389
3.76165e-10
0.00454389
5.14472e-11
0.00454389
-2.21575e-10
0.00454389
-3.65426e-10
0.00454389
-4.15723e-10
0.00454389
-1.10646e-09
0.00454389
-1.25224e-09
0.00454389
-1.51941e-09
0.00454389
-1.40135e-09
0.00454389
-1.70951e-09
0.00454389
-1.2953e-09
0.00454389
-1.24435e-09
0.00454389
-7.13589e-10
0.00454389
-6.46244e-10
0.00454389
-1.0656e-11
0.00454389
2.4022e-10
0.00454389
7.37385e-10
0.00454389
1.29921e-09
0.00454389
1.84659e-09
0.00454389
1.87819e-09
0.00454389
1.95081e-09
0.00454389
1.77663e-09
0.00454389
1.73702e-09
0.00454389
9.4956e-10
0.00454389
6.55234e-10
0.00454389
5.88764e-10
0.00454389
9.96542e-10
0.00454389
1.48375e-09
0.00454389
3.50399e-09
0.00454388
6.75552e-09
0.00454388
1.16949e-08
0.00454387
1.91811e-08
0.00454386
3.06866e-08
0.00454384
4.62259e-08
0.00454381
6.73774e-08
0.00454377
9.11071e-08
0.00454372
1.15194e-07
0.00454366
1.2323e-07
0.00454357
1.56452e-07
0.00454336
3.68417e-07
0.00454251
1.64592e-06
0.00453995
5.53104e-06
0.0045328
1.40581e-05
1.69258e-05
0.00520841
0.00355691
0.00505337
0.0010298
0.00497541
0.000275129
0.00496543
3.69642e-05
0.00496719
-1.38828e-05
0.00496872
-4.19726e-06
0.00496806
2.34352e-06
0.00496614
7.6995e-06
0.00496395
8.11825e-06
0.00496189
7.64414e-06
0.00496014
6.35988e-06
0.00495871
5.16697e-06
0.00495758
4.03348e-06
0.0049567
3.09258e-06
0.00495605
2.31191e-06
0.00495556
1.69604e-06
0.00495521
1.21638e-06
0.00495496
8.58823e-07
0.00495479
5.94402e-07
0.00495467
4.03764e-07
0.00495459
2.73967e-07
0.00495453
1.82421e-07
0.0049545
1.18388e-07
0.00495448
7.728e-08
0.00495446
4.89396e-08
0.00495445
3.16246e-08
0.00495445
2.01711e-08
0.00495444
1.29628e-08
0.00495444
8.42824e-09
0.00495444
5.33432e-09
0.00495444
4.08131e-09
0.00495444
2.00107e-09
0.00495444
1.43216e-09
0.00495444
4.53694e-10
0.00495444
1.56529e-10
0.00495444
-6.95721e-10
0.00495444
-6.03459e-10
0.00495444
-6.25773e-10
0.00495444
3.84619e-10
0.00495444
-1.23008e-11
0.00495444
-2.71214e-10
0.00495444
-8.72198e-11
0.00495444
8.3582e-11
0.00495444
-1.68559e-10
0.00495444
7.18869e-10
0.00495444
1.1041e-09
0.00495444
1.47842e-09
0.00495444
1.04798e-09
0.00495444
1.36271e-09
0.00495444
9.82582e-10
0.00495444
8.52566e-10
0.00495444
5.91943e-10
0.00495444
8.89327e-10
0.00495444
4.31659e-10
0.00495444
4.82875e-10
0.00495444
2.79549e-10
0.00495444
4.399e-10
0.00495444
9.83702e-11
0.00495444
-2.78475e-10
0.00495444
-5.61208e-10
0.00495444
-7.16256e-10
0.00495444
-1.61818e-09
0.00495444
-1.84229e-09
0.00495444
-2.18695e-09
0.00495444
-2.03842e-09
0.00495444
-2.37349e-09
0.00495444
-1.82162e-09
0.00495444
-1.68874e-09
0.00495444
-1.07134e-09
0.00495444
-9.26204e-10
0.00495444
-9.21497e-11
0.00495444
4.01216e-10
0.00495444
1.09628e-09
0.00495444
1.82115e-09
0.00495444
2.66624e-09
0.00495444
2.84592e-09
0.00495444
2.92335e-09
0.00495444
2.58146e-09
0.00495444
2.50012e-09
0.00495444
1.5634e-09
0.00495444
1.03992e-09
0.00495444
8.29123e-10
0.00495444
1.4249e-09
0.00495444
2.28651e-09
0.00495443
4.99865e-09
0.00495443
9.56761e-09
0.00495443
1.6667e-08
0.00495442
2.72647e-08
0.00495441
4.33532e-08
0.00495439
6.52742e-08
0.00495436
9.52035e-08
0.00495432
1.29593e-07
0.00495427
1.67944e-07
0.0049542
1.91433e-07
0.00495408
2.76564e-07
0.00495381
6.36846e-07
0.00495282
2.63296e-06
0.00495002
8.33112e-06
0.00494145
2.26323e-05
3.306e-05
0.00532076
0.00323615
0.00523004
0.00112052
0.00516892
0.000336256
0.00516041
4.54729e-05
0.00516122
-1.46923e-05
0.00516264
-5.61989e-06
0.00516212
2.86064e-06
0.00516057
9.25195e-06
0.00515873
9.95575e-06
0.00515699
9.38528e-06
0.00515549
7.85843e-06
0.00515426
6.39987e-06
0.00515328
5.01341e-06
0.00515252
3.85269e-06
0.00515194
2.88841e-06
0.00515152
2.12423e-06
0.0051512
1.52704e-06
0.00515098
1.0813e-06
0.00515083
7.49735e-07
0.00515072
5.10178e-07
0.00515065
3.467e-07
0.0051506
2.31389e-07
0.00515057
1.49726e-07
0.00515055
9.75981e-08
0.00515053
6.24481e-08
0.00515053
4.02306e-08
0.00515052
2.52373e-08
0.00515052
1.61801e-08
0.00515052
1.06019e-08
0.00515051
6.67575e-09
0.00515051
5.0297e-09
0.00515051
2.51025e-09
0.00515051
1.65277e-09
0.00515051
5.1031e-10
0.00515051
1.58746e-10
0.00515051
-9.5258e-10
0.00515051
-7.753e-10
0.00515051
-7.09028e-10
0.00515051
3.6334e-10
0.00515051
1.06839e-12
0.00515051
-4.14578e-10
0.00515051
-1.55525e-10
0.00515051
1.67131e-10
0.00515051
-7.93714e-11
0.00515051
8.88786e-10
0.00515051
1.45832e-09
0.00515051
2.02156e-09
0.00515051
1.52439e-09
0.00515051
1.77872e-09
0.00515051
1.4101e-09
0.00515051
1.24961e-09
0.00515051
8.58788e-10
0.00515051
1.11494e-09
0.00515051
5.99219e-10
0.00515051
5.73745e-10
0.00515051
3.02096e-10
0.00515051
4.36549e-10
0.00515051
1.13057e-10
0.00515051
-3.61481e-10
0.00515051
-7.96514e-10
0.00515051
-1.08459e-09
0.00515051
-2.10632e-09
0.00515051
-2.40247e-09
0.00515051
-2.83098e-09
0.00515051
-2.64362e-09
0.00515051
-2.94159e-09
0.00515051
-2.34825e-09
0.00515052
-2.15837e-09
0.00515052
-1.43699e-09
0.00515052
-1.20146e-09
0.00515052
-2.39286e-10
0.00515052
5.22311e-10
0.00515052
1.45489e-09
0.00515052
2.34922e-09
0.00515051
3.40902e-09
0.00515051
3.7804e-09
0.00515051
3.87956e-09
0.00515051
3.39499e-09
0.00515051
3.22039e-09
0.00515051
2.16643e-09
0.00515051
1.42625e-09
0.00515051
1.07324e-09
0.00515051
1.7971e-09
0.00515051
3.01198e-09
0.00515051
6.34666e-09
0.00515051
1.21009e-08
0.0051505
2.11275e-08
0.00515049
3.45319e-08
0.00515048
5.47023e-08
0.00515047
8.23504e-08
0.00515044
1.20329e-07
0.00515041
1.65081e-07
0.00515035
2.1916e-07
0.00515028
2.63792e-07
0.00515014
4.14375e-07
0.00514984
9.37898e-07
0.00514883
3.65104e-06
0.00514606
1.10989e-05
0.00513723
3.14569e-05
4.90232e-05
0.00534399
0.00289215
0.00530278
0.00116173
0.00525907
0.000379974
0.00525229
5.22494e-05
0.00525249
-1.48868e-05
0.00525374
-6.87603e-06
0.00525338
3.22382e-06
0.00525223
1.04055e-05
0.00525079
1.13868e-05
0.00524943
1.0753e-05
0.00524823
9.05138e-06
0.00524724
7.39016e-06
0.00524645
5.80826e-06
0.00524583
4.47346e-06
0.00524535
3.36293e-06
0.005245
2.47918e-06
0.00524474
1.78613e-06
0.00524455
1.26659e-06
0.00524442
8.80871e-07
0.00524433
6.00432e-07
0.00524427
4.08483e-07
0.00524423
2.73116e-07
0.0052442
1.76807e-07
0.00524418
1.14898e-07
0.00524417
7.38388e-08
0.00524417
4.77137e-08
0.00524416
2.96023e-08
0.00524416
1.8739e-08
0.00524416
1.24269e-08
0.00524416
7.80321e-09
0.00524416
5.7375e-09
0.00524416
2.87581e-09
0.00524416
1.75549e-09
0.00524416
4.54171e-10
0.00524416
1.71738e-10
0.00524416
-1.10727e-09
0.00524416
-9.71254e-10
0.00524416
-8.39478e-10
0.00524416
3.34005e-10
0.00524416
3.25203e-11
0.00524416
-5.59229e-10
0.00524416
-3.10635e-10
0.00524416
2.3861e-10
0.00524416
6.43854e-11
0.00524416
1.07293e-09
0.00524416
1.75271e-09
0.00524416
2.54569e-09
0.00524416
2.05949e-09
0.00524416
2.23666e-09
0.00524415
1.81413e-09
0.00524415
1.63387e-09
0.00524415
1.14761e-09
0.00524415
1.32489e-09
0.00524415
7.13448e-10
0.00524415
5.96623e-10
0.00524415
2.99701e-10
0.00524415
4.16409e-10
0.00524415
7.3085e-11
0.00524415
-5.00382e-10
0.00524416
-1.04463e-09
0.00524416
-1.42959e-09
0.00524416
-2.59107e-09
0.00524416
-2.92447e-09
0.00524416
-3.38358e-09
0.00524416
-3.17117e-09
0.00524416
-3.46316e-09
0.00524416
-2.83056e-09
0.00524416
-2.60745e-09
0.00524416
-1.79459e-09
0.00524416
-1.47579e-09
0.00524416
-3.96103e-10
0.00524416
6.05848e-10
0.00524416
1.81635e-09
0.00524416
2.88285e-09
0.00524416
4.11677e-09
0.00524416
4.66481e-09
0.00524416
4.83945e-09
0.00524416
4.22721e-09
0.00524415
3.93249e-09
0.00524415
2.76231e-09
0.00524415
1.84282e-09
0.00524415
1.33123e-09
0.00524415
2.13e-09
0.00524415
3.62636e-09
0.00524415
7.48916e-09
0.00524415
1.42368e-08
0.00524415
2.49099e-08
0.00524414
4.06892e-08
0.00524413
6.42957e-08
0.00524412
9.67886e-08
0.0052441
1.41784e-07
0.00524406
1.96139e-07
0.00524402
2.66315e-07
0.00524395
3.35713e-07
0.0052438
5.58727e-07
0.0052435
1.24029e-06
0.00524252
4.63154e-06
0.00524
1.36148e-05
0.00523186
3.96015e-05
6.31769e-05
0.00533115
0.00256101
0.0053275
0.00116537
0.00529993
0.000407547
0.00529495
5.72272e-05
0.00529476
-1.46975e-05
0.00529582
-7.93752e-06
0.00529561
3.43185e-06
0.00529485
1.11697e-05
0.00529383
1.2402e-05
0.00529285
1.17366e-05
0.00529198
9.92485e-06
0.00529124
8.12357e-06
0.00529065
6.40454e-06
0.00529018
4.94388e-06
0.00528982
3.72603e-06
0.00528954
2.75321e-06
0.00528934
1.98773e-06
0.00528919
1.41211e-06
0.00528909
9.84573e-07
0.00528902
6.72325e-07
0.00528897
4.57324e-07
0.00528894
3.0642e-07
0.00528891
1.98808e-07
0.0052889
1.28941e-07
0.00528889
8.28163e-08
0.00528889
5.3653e-08
0.00528888
3.32768e-08
0.00528888
2.07517e-08
0.00528888
1.37875e-08
0.00528888
8.63313e-09
0.00528888
6.22063e-09
0.00528888
3.11126e-09
0.00528888
1.79224e-09
0.00528888
3.22055e-10
0.00528888
1.31806e-10
0.00528888
-1.20351e-09
0.00528888
-1.13735e-09
0.00528888
-1.01429e-09
0.00528888
2.33037e-10
0.00528888
5.82341e-11
0.00528888
-6.54012e-10
0.00528888
-5.32261e-10
0.00528888
2.41343e-10
0.00528888
2.39213e-10
0.00528888
1.31423e-09
0.00528888
2.01597e-09
0.00528888
3.00416e-09
0.00528888
2.58106e-09
0.00528888
2.73312e-09
0.00528888
2.22014e-09
0.00528888
1.96321e-09
0.00528888
1.40621e-09
0.00528888
1.53152e-09
0.00528888
8.19757e-10
0.00528888
5.74206e-10
0.00528888
2.6138e-10
0.00528888
3.86602e-10
0.00528888
1.52304e-11
0.00528888
-6.73863e-10
0.00528888
-1.32546e-09
0.00528888
-1.74243e-09
0.00528888
-3.02288e-09
0.00528888
-3.40251e-09
0.00528888
-3.86541e-09
0.00528888
-3.60483e-09
0.00528888
-3.92743e-09
0.00528888
-3.2814e-09
0.00528888
-3.03501e-09
0.00528888
-2.13614e-09
0.00528888
-1.73869e-09
0.00528888
-5.42081e-10
0.00528888
6.67871e-10
0.00528888
2.1725e-09
0.00528888
3.42616e-09
0.00528888
4.81305e-09
0.00528888
5.50511e-09
0.00528888
5.78934e-09
0.00528888
5.07962e-09
0.00528888
4.64936e-09
0.00528888
3.34752e-09
0.00528888
2.26787e-09
0.00528888
1.58301e-09
0.00528888
2.40743e-09
0.00528888
4.10907e-09
0.00528888
8.38665e-09
0.00528887
1.59182e-08
0.00528887
2.79195e-08
0.00528887
4.55907e-08
0.00528886
7.19127e-08
0.00528885
1.08246e-07
0.00528883
1.58989e-07
0.00528881
2.21838e-07
0.00528876
3.07477e-07
0.0052887
4.02555e-07
0.00528856
6.97941e-07
0.00528827
1.52685e-06
0.0052874
5.50569e-06
0.00528528
1.57349e-05
0.00527841
4.64703e-05
7.47196e-05
0.00530584
0.00225516
0.00533066
0.00114056
0.00531737
0.000420834
0.00531417
6.04335e-05
0.00531373
-1.42646e-05
0.00531458
-8.78336e-06
0.00531452
3.49355e-06
0.00531412
1.15714e-05
0.0053135
1.30149e-05
0.0053129
1.23452e-05
0.00531234
1.04824e-05
0.00531186
8.6005e-06
0.00531147
6.80016e-06
0.00531115
5.2609e-06
0.0053109
3.97426e-06
0.00531071
2.94324e-06
0.00531057
2.12927e-06
0.00531047
1.51562e-06
0.00531039
1.05901e-06
0.00531034
7.24481e-07
0.0053103
4.93192e-07
0.00531028
3.30865e-07
0.00531026
2.14694e-07
0.00531025
1.39441e-07
0.00531025
8.94457e-08
0.00531024
5.78727e-08
0.00531024
3.60896e-08
0.00531024
2.23196e-08
0.00531024
1.47027e-08
0.00531024
9.0896e-09
0.00531024
6.47194e-09
0.00531024
3.28576e-09
0.00531024
1.8384e-09
0.00531024
1.67879e-10
0.00531024
2.50743e-11
0.00531024
-1.27295e-09
0.00531024
-1.23007e-09
0.00531024
-1.1471e-09
0.00531024
6.15361e-11
0.00531024
2.06174e-11
0.00531024
-6.89319e-10
0.00531024
-7.1894e-10
0.00531024
1.81442e-10
0.00531024
3.88573e-10
0.00531024
1.59354e-09
0.00531024
2.30531e-09
0.00531024
3.41465e-09
0.00531024
3.0498e-09
0.00531024
3.22572e-09
0.00531024
2.66595e-09
0.00531024
2.28392e-09
0.00531024
1.63756e-09
0.00531024
1.73637e-09
0.00531024
9.6432e-10
0.00531024
5.70733e-10
0.00531024
2.14135e-10
0.00531024
3.41812e-10
0.00531024
-4.22139e-11
0.00531024
-8.58117e-10
0.00531024
-1.64183e-09
0.00531024
-2.0536e-09
0.00531024
-3.38604e-09
0.00531024
-3.83113e-09
0.00531024
-4.3112e-09
0.00531024
-3.98473e-09
0.00531024
-4.33758e-09
0.00531024
-3.72518e-09
0.00531024
-3.46791e-09
0.00531024
-2.4863e-09
0.00531024
-1.9975e-09
0.00531024
-6.86396e-10
0.00531024
7.12202e-10
0.00531024
2.4936e-09
0.00531024
3.95154e-09
0.00531024
5.47794e-09
0.00531024
6.2868e-09
0.00531024
6.68005e-09
0.00531024
5.90633e-09
0.00531024
5.33183e-09
0.00531024
3.88781e-09
0.00531024
2.64597e-09
0.00531024
1.77934e-09
0.00531024
2.5804e-09
0.00531024
4.42129e-09
0.00531024
8.99109e-09
0.00531024
1.70914e-08
0.00531023
3.0081e-08
0.00531023
4.91393e-08
0.00531022
7.74035e-08
0.00531022
1.1653e-07
0.0053102
1.71552e-07
0.00531018
2.41296e-07
0.00531015
3.41134e-07
0.00531009
4.60903e-07
0.00530997
8.23494e-07
0.00530972
1.77785e-06
0.005309
6.22382e-06
0.00530736
1.73704e-05
0.0053021
5.17293e-05
8.32956e-05
0.00527816
0.001977
0.00532472
0.00109399
0.0053238
0.000421751
0.00532229
6.19434e-05
0.00532169
-1.36641e-05
0.0053223
-9.39301e-06
0.00532237
3.42752e-06
0.0053223
1.16434e-05
0.00532206
1.32501e-05
0.00532181
1.25982e-05
0.00532155
1.07369e-05
0.00532132
8.82925e-06
0.00532112
6.99956e-06
0.00532096
5.42659e-06
0.00532082
4.10832e-06
0.00532072
3.04908e-06
0.00532064
2.2101e-06
0.00532058
1.57609e-06
0.00532053
1.10346e-06
0.0053205
7.56249e-07
0.00532048
5.15512e-07
0.00532046
3.46236e-07
0.00532045
2.24549e-07
0.00532045
1.45998e-07
0.00532044
9.36099e-08
0.00532044
6.04568e-08
0.00532044
3.78466e-08
0.00532044
2.33521e-08
0.00532044
1.52429e-08
0.00532044
9.23264e-09
0.00532044
6.50001e-09
0.00532044
3.41197e-09
0.00532044
1.92045e-09
0.00532044
3.75114e-11
0.00532044
-1.08393e-10
0.00532044
-1.31649e-09
0.00532044
-1.2762e-09
0.00532044
-1.20636e-09
0.00532044
-1.13831e-10
0.00532044
-7.79297e-11
0.00532044
-7.16855e-10
0.00532044
-8.40452e-10
0.00532044
1.01264e-10
0.00532044
4.969e-10
0.00532044
1.85094e-09
0.00532044
2.6137e-09
0.00532044
3.79947e-09
0.00532044
3.46924e-09
0.00532044
3.67066e-09
0.00532044
3.14275e-09
0.00532044
2.63838e-09
0.00532044
1.86445e-09
0.00532044
1.93021e-09
0.00532044
1.1583e-09
0.00532044
6.28024e-10
0.00532044
1.84587e-10
0.00532044
2.63755e-10
0.00532044
-1.12234e-10
0.00532044
-1.04325e-09
0.00532044
-1.9792e-09
0.00532044
-2.39226e-09
0.00532044
-3.6921e-09
0.00532044
-4.19594e-09
0.00532044
-4.72349e-09
0.00532044
-4.35067e-09
0.00532044
-4.70109e-09
0.00532044
-4.16234e-09
0.00532044
-3.91078e-09
0.00532044
-2.85815e-09
0.00532044
-2.25011e-09
0.00532044
-8.30897e-10
0.00532044
7.48602e-10
0.00532044
2.76794e-09
0.00532044
4.43809e-09
0.00532044
6.08911e-09
0.00532044
7.00297e-09
0.00532044
7.48488e-09
0.00532044
6.67438e-09
0.00532044
5.95143e-09
0.00532044
4.36686e-09
0.00532044
2.95268e-09
0.00532044
1.89758e-09
0.00532044
2.62301e-09
0.00532044
4.54346e-09
0.00532044
9.27666e-09
0.00532044
1.77317e-08
0.00532044
3.13427e-08
0.00532043
5.1286e-08
0.00532043
8.06458e-08
0.00532043
1.21464e-07
0.00532042
1.79423e-07
0.00532041
2.54313e-07
0.00532038
3.65881e-07
0.00532033
5.07587e-07
0.00532023
9.27259e-07
0.00532003
1.97757e-06
0.0053195
6.75241e-06
0.0053184
1.84713e-05
0.00531491
5.52221e-05
8.88037e-05
0.00525212
0.00172488
0.00531546
0.00103065
0.00532515
0.000412059
0.00532524
6.18535e-05
0.0053245
-1.29313e-05
0.00532486
-9.74702e-06
0.00532503
3.25784e-06
0.00532525
1.14214e-05
0.00532536
1.31378e-05
0.00532544
1.25209e-05
0.00532547
1.07063e-05
0.00532548
8.82271e-06
0.00532546
7.0113e-06
0.00532544
5.44645e-06
0.00532542
4.13153e-06
0.0053254
3.07249e-06
0.00532537
2.23105e-06
0.00532536
1.59376e-06
0.00532534
1.11794e-06
0.00532533
7.67506e-07
0.00532532
5.23863e-07
0.00532532
3.52362e-07
0.00532531
2.2831e-07
0.00532531
1.48421e-07
0.00532531
9.53358e-08
0.00532531
6.14773e-08
0.00532531
3.84702e-08
0.00532531
2.37229e-08
0.00532531
1.54075e-08
0.00532531
9.1625e-09
0.00532531
6.34061e-09
0.00532531
3.45291e-09
0.00532531
2.01861e-09
0.00532531
-5.48347e-11
0.00532531
-2.4762e-10
0.00532531
-1.32258e-09
0.00532531
-1.2958e-09
0.00532531
-1.21546e-09
0.00532531
-2.52612e-10
0.00532531
-2.01845e-10
0.00532531
-7.76181e-10
0.00532531
-9.2362e-10
0.00532531
1.69278e-11
0.00532531
5.62173e-10
0.00532531
2.03759e-09
0.00532531
2.89134e-09
0.00532531
4.15003e-09
0.00532531
3.84994e-09
0.00532531
4.03885e-09
0.00532531
3.60462e-09
0.00532531
3.02669e-09
0.00532531
2.10701e-09
0.00532531
2.10329e-09
0.00532531
1.37763e-09
0.00532531
7.4742e-10
0.00532531
1.85559e-10
0.00532531
1.41913e-10
0.00532531
-2.18423e-10
0.00532531
-1.23122e-09
0.00532531
-2.31331e-09
0.00532531
-2.75352e-09
0.00532531
-3.95386e-09
0.00532531
-4.48153e-09
0.00532531
-5.0776e-09
0.00532531
-4.70806e-09
0.00532531
-5.02324e-09
0.00532531
-4.57169e-09
0.00532531
-4.34319e-09
0.00532531
-3.23966e-09
0.00532531
-2.48387e-09
0.00532531
-9.61091e-10
0.00532531
7.9543e-10
0.00532531
3.00797e-09
0.00532531
4.88841e-09
0.00532531
6.6484e-09
0.00532531
7.66516e-09
0.00532531
8.21505e-09
0.00532531
7.38587e-09
0.00532531
6.51188e-09
0.00532531
4.79764e-09
0.00532531
3.20228e-09
0.00532531
1.94969e-09
0.00532531
2.54337e-09
0.00532531
4.47997e-09
0.00532531
9.2449e-09
0.00532531
1.78389e-08
0.00532531
3.16863e-08
0.00532531
5.19513e-08
0.00532531
8.17471e-08
0.00532531
1.23183e-07
0.0053253
1.82512e-07
0.0053253
2.60565e-07
0.00532528
3.80669e-07
0.00532525
5.3985e-07
0.00532518
1.00263e-06
0.00532504
2.1149e-06
0.00532472
7.07057e-06
0.00532418
1.90158e-05
0.00532249
5.6909e-05
9.12948e-05
0.00522912
0.00149576
0.0053055
0.000954274
0.00532424
0.000393316
0.00532583
6.02699e-05
0.00532497
-1.20796e-05
0.00532506
-9.83039e-06
0.00532531
3.01007e-06
0.00532579
1.09413e-05
0.00532621
1.27102e-05
0.00532659
1.21408e-05
0.00532689
1.04121e-05
0.00532711
8.59673e-06
0.00532728
6.84663e-06
0.0053274
5.32825e-06
0.00532748
4.04913e-06
0.00532753
3.01675e-06
0.00532757
2.19419e-06
0.00532759
1.5698e-06
0.00532761
1.10303e-06
0.00532762
7.58572e-07
0.00532762
5.18311e-07
0.00532763
3.49106e-07
0.00532763
2.25992e-07
0.00532763
1.46737e-07
0.00532763
9.44606e-08
0.00532763
6.09684e-08
0.00532763
3.8102e-08
0.00532764
2.33653e-08
0.00532764
1.51288e-08
0.00532764
8.92058e-09
0.00532764
6.03974e-09
0.00532764
3.35762e-09
0.00532764
2.08082e-09
0.00532764
-1.0905e-10
0.00532764
-3.87115e-10
0.00532764
-1.29128e-09
0.00532764
-1.28308e-09
0.00532764
-1.20167e-09
0.00532764
-3.52414e-10
0.00532764
-3.19609e-10
0.00532764
-8.66058e-10
0.00532764
-1.00611e-09
0.00532764
-8.06022e-11
0.00532764
5.7971e-10
0.00532764
2.13535e-09
0.00532764
3.09097e-09
0.00532764
4.43908e-09
0.00532764
4.18935e-09
0.00532764
4.32552e-09
0.00532764
4.00277e-09
0.00532764
3.4219e-09
0.00532764
2.37368e-09
0.00532764
2.25651e-09
0.00532764
1.59194e-09
0.00532764
9.07174e-10
0.00532764
2.20674e-10
0.00532764
-1.5074e-11
0.00532764
-3.77662e-10
0.00532764
-1.42801e-09
0.00532764
-2.62061e-09
0.00532764
-3.1098e-09
0.00532764
-4.17916e-09
0.00532764
-4.68354e-09
0.00532764
-5.34897e-09
0.00532764
-5.04125e-09
0.00532764
-5.31054e-09
0.00532764
-4.93634e-09
0.00532764
-4.74193e-09
0.00532764
-3.61213e-09
0.00532764
-2.69031e-09
0.00532764
-1.06101e-09
0.00532764
8.65008e-10
0.00532764
3.23509e-09
0.00532764
5.31156e-09
0.00532764
7.16966e-09
0.00532764
8.28512e-09
0.00532764
8.89587e-09
0.00532764
8.05844e-09
0.00532764
7.03119e-09
0.00532764
5.19532e-09
0.00532764
3.41838e-09
0.00532764
1.95522e-09
0.00532764
2.36116e-09
0.00532764
4.23986e-09
0.00532764
8.91288e-09
0.00532764
1.73881e-08
0.00532764
3.11588e-08
0.00532764
5.12665e-08
0.00532764
8.07383e-08
0.00532764
1.21749e-07
0.00532764
1.80855e-07
0.00532764
2.59868e-07
0.00532764
3.84742e-07
0.00532762
5.5563e-07
0.00532758
1.04485e-06
0.00532751
2.18265e-06
0.00532742
7.16786e-06
0.00532743
1.90032e-05
0.00532751
5.68285e-05
9.09125e-05
0.00520944
0.00128633
0.00529601
0.0008677
0.00532244
0.000366887
0.00532541
5.73045e-05
0.00532444
-1.11127e-05
0.00532425
-9.63551e-06
0.00532455
2.70827e-06
0.00532525
1.02375e-05
0.00532596
1.20002e-05
0.00532662
1.14869e-05
0.00532715
9.8771e-06
0.00532758
8.16903e-06
0.00532791
6.51865e-06
0.00532815
5.08141e-06
0.00532833
3.86779e-06
0.00532846
2.88635e-06
0.00532855
2.10244e-06
0.00532862
1.50617e-06
0.00532866
1.0599e-06
0.00532869
7.30127e-07
0.00532871
4.99328e-07
0.00532872
3.36614e-07
0.00532873
2.17695e-07
0.00532874
1.41112e-07
0.00532874
9.09597e-08
0.00532874
5.88506e-08
0.00532874
3.67914e-08
0.00532875
2.23552e-08
0.00532875
1.43955e-08
0.00532875
8.44942e-09
0.00532875
5.63094e-09
0.00532875
3.1059e-09
0.00532875
2.05556e-09
0.00532875
-1.29825e-10
0.00532875
-5.11699e-10
0.00532875
-1.23122e-09
0.00532875
-1.2208e-09
0.00532875
-1.16862e-09
0.00532875
-4.16499e-10
0.00532875
-4.1338e-10
0.00532875
-9.60196e-10
0.00532875
-1.10238e-09
0.00532875
-2.00554e-10
0.00532875
5.46269e-10
0.00532875
2.15701e-09
0.00532875
3.19212e-09
0.00532875
4.64414e-09
0.00532875
4.47788e-09
0.00532875
4.54882e-09
0.00532875
4.31399e-09
0.00532875
3.79714e-09
0.00532875
2.66353e-09
0.00532875
2.40898e-09
0.00532875
1.78974e-09
0.00532875
1.08853e-09
0.00532875
2.88879e-10
0.00532875
-1.84959e-10
0.00532875
-5.92761e-10
0.00532875
-1.63832e-09
0.00532875
-2.89395e-09
0.00532875
-3.4339e-09
0.00532875
-4.37575e-09
0.00532875
-4.815e-09
0.00532875
-5.53849e-09
0.00532875
-5.34136e-09
0.00532875
-5.5802e-09
0.00532875
-5.25991e-09
0.00532875
-5.10092e-09
0.00532875
-3.96583e-09
0.00532875
-2.87554e-09
0.00532875
-1.12985e-09
0.00532875
9.51686e-10
0.00532875
3.45519e-09
0.00532875
5.70275e-09
0.00532875
7.65396e-09
0.00532875
8.86456e-09
0.00532875
9.53532e-09
0.00532875
8.68982e-09
0.00532875
7.51259e-09
0.00532875
5.55346e-09
0.00532875
3.60563e-09
0.00532875
1.91785e-09
0.00532875
2.0843e-09
0.00532875
3.82723e-09
0.00532875
8.2655e-09
0.00532875
1.645e-08
0.00532875
2.98064e-08
0.00532875
4.92835e-08
0.00532876
7.77124e-08
0.00532876
1.17271e-07
0.00532877
1.74576e-07
0.00532878
2.52221e-07
0.00532878
3.77691e-07
0.00532878
5.53635e-07
0.00532878
1.05101e-06
0.00532878
2.17714e-06
0.00532891
7.04291e-06
0.00532946
1.84488e-05
0.00533122
5.50713e-05
8.78587e-05
0.00519291
0.00109341
0.00528747
0.000773145
0.00532038
0.000333974
0.00532461
5.30758e-05
0.00532353
-1.00323e-05
0.00532306
-9.16356e-06
0.0053234
2.37335e-06
0.00532429
9.34257e-06
0.00532525
1.10403e-05
0.00532615
1.05886e-05
0.0053269
9.12556e-06
0.00532751
7.55879e-06
0.00532799
6.04195e-06
0.00532835
4.71677e-06
0.00532862
3.59533e-06
0.00532882
2.68688e-06
0.00532897
1.95958e-06
0.00532907
1.40552e-06
0.00532914
9.90306e-07
0.00532918
6.83156e-07
0.00532922
4.67682e-07
0.00532924
3.15409e-07
0.00532925
2.03625e-07
0.00532926
1.31757e-07
0.00532927
8.49829e-08
0.00532927
5.50995e-08
0.00532927
3.45342e-08
0.00532927
2.07652e-08
0.00532928
1.32293e-08
0.00532928
7.71589e-09
0.00532928
5.09979e-09
0.00532928
2.72205e-09
0.00532928
1.92115e-09
0.00532928
-1.27311e-10
0.00532928
-5.99119e-10
0.00532928
-1.14716e-09
0.00532928
-1.09614e-09
0.00532928
-1.09901e-09
0.00532928
-4.40015e-10
0.00532928
-4.7794e-10
0.00532928
-1.03522e-09
0.00532928
-1.2019e-09
0.00532928
-3.36297e-10
0.00532928
4.63864e-10
0.00532928
2.12531e-09
0.00532928
3.20058e-09
0.00532928
4.75488e-09
0.00532928
4.713e-09
0.00532928
4.72212e-09
0.00532928
4.54991e-09
0.00532928
4.13082e-09
0.00532928
2.9763e-09
0.00532928
2.58831e-09
0.00532928
1.97909e-09
0.00532928
1.28121e-09
0.00532928
3.82502e-10
0.00532928
-3.43299e-10
0.00532928
-8.51238e-10
0.00532928
-1.86472e-09
0.00532928
-3.13564e-09
0.00532928
-3.70946e-09
0.00532928
-4.55095e-09
0.00532928
-4.90396e-09
0.00532928
-5.67579e-09
0.00532928
-5.60427e-09
0.00532928
-5.85274e-09
0.00532928
-5.55368e-09
0.00532928