/*--------------------------------*- C++ -*----------------------------------*\
| =========                 |                                                 |
| \\      /  F ield         | OpenFOAM: The Open Source CFD Toolbox           |
|  \\    /   O peration     | Version:  v1906                                 |
|   \\  /    A nd           | Web:      www.OpenFOAM.com                      |
|    \\/     M anipulation  |                                                 |
\*---------------------------------------------------------------------------*/
FoamFile
{
    version     2.0;
    format      ascii;
    class       surfaceScalarField;
    location    "0.5";
    object      phi;
}
// * * * * * * * * * * * * * * * * * * * * * * * * * * * * * * * * * * * * * //

dimensions      [0 3 -1 0 0 0 0];
oriented        oriented;


internalField   nonuniform List<scalar> 
7860
(
0.00266561
0.00233438
0.0026025
6.31128e-05
0.00261583
-1.33294e-05
0.00260016
1.56698e-05
0.00260564
-5.48555e-06
0.00259852
7.12295e-06
0.00260048
-1.95499e-06
0.00259761
2.86697e-06
0.00259843
-8.13949e-07
0.00259736
1.06879e-06
0.00259773
-3.72049e-07
0.00259734
3.86431e-07
0.00259751
-1.66185e-07
0.00259737
1.42468e-07
0.00259744
-7.14508e-08
0.00259739
5.16774e-08
0.00259742
-2.89694e-08
0.0025974
2.15408e-08
0.00259741
-1.22038e-08
0.0025974
6.12322e-09
0.0025974
-4.85554e-09
0.0025974
4.15093e-09
0.0025974
-1.60635e-09
0.0025974
4.51364e-10
0.0025974
-8.38985e-10
0.0025974
5.38102e-10
0.0025974
-2.82088e-10
0.0025974
6.00635e-11
0.0025974
-1.18672e-11
0.0025974
-4.51287e-12
0.0025974
3.2621e-10
0.0025974
7.12091e-10
0.0025974
-2.74897e-10
0.0025974
-1.02991e-09
0.0025974
5.34207e-10
0.0025974
9.25192e-10
0.0025974
-5.3288e-10
0.0025974
-1.09139e-09
0.0025974
5.10374e-10
0.0025974
7.89451e-10
0.0025974
-4.09175e-10
0.0025974
-7.33678e-10
0.0025974
2.7497e-10
0.0025974
6.92871e-10
0.0025974
5.22242e-11
0.0025974
-7.66169e-10
0.0025974
-2.72043e-11
0.0025974
6.15802e-10
0.0025974
4.05879e-11
0.0025974
-6.15039e-10
0.0025974
-1.83319e-10
0.0025974
3.14485e-10
0.0025974
4.22965e-10
0.0025974
-2.13308e-10
0.0025974
-3.22041e-10
0.0025974
1.93619e-10
0.0025974
2.63629e-10
0.0025974
-2.12046e-10
0.0025974
-6.06016e-11
0.0025974
1.76175e-10
0.0025974
3.98109e-11
0.0025974
-2.49729e-11
0.0025974
2.68707e-10
0.0025974
2.24689e-10
0.0025974
3.50836e-11
0.0025974
-6.38306e-10
0.0025974
3.5592e-10
0.0025974
4.74018e-10
0.0025974
-2.24998e-10
0.0025974
-3.15268e-10
0.0025974
1.80676e-10
0.0025974
4.51076e-10
0.0025974
1.72066e-10
0.0025974
-1.24108e-10
0.0025974
1.3918e-12
0.0025974
2.1354e-10
0.0025974
4.72015e-11
0.0025974
-1.67878e-11
0.0025974
1.21287e-10
0.0025974
1.86532e-10
0.0025974
-6.14861e-11
0.0025974
-8.93085e-11
0.0025974
1.11546e-10
0.0025974
8.50245e-11
0.0025974
-1.71408e-11
0.0025974
-5.43033e-12
0.0025974
1.12468e-10
0.0025974
2.21939e-11
0.0025974
2.20314e-10
0.0025974
3.12705e-10
0.0025974
8.85418e-10
0.0025974
1.08003e-09
0.00259739
3.5655e-09
0.00259739
6.01814e-09
0.00259737
1.66088e-08
0.00259735
1.92959e-08
0.0025973
5.48634e-08
0.00259732
-2.37816e-08
0.00259628
1.04515e-06
-2.55164e-07
0.0043993
0.00293508
0.00434263
0.000119779
0.00435408
-2.47765e-05
0.00433499
3.47639e-05
0.00434063
-1.11283e-05
0.00433155
1.62053e-05
0.00433341
-3.8181e-06
0.00432969
6.58967e-06
0.00433047
-1.58903e-06
0.00432908
2.45684e-06
0.00432946
-7.53218e-07
0.00432897
8.81137e-07
0.00432915
-3.48522e-07
0.00432897
3.18938e-07
0.00432905
-1.52116e-07
0.00432899
1.17976e-07
0.00432902
-6.35876e-08
0.004329
4.46052e-08
0.00432901
-2.62001e-08
0.004329
1.60079e-08
0.00432901
-1.0604e-08
0.004329
7.58663e-09
0.004329
-3.1809e-09
0.004329
2.00126e-09
0.004329
-1.74458e-09
0.004329
1.1131e-09
0.004329
-3.17893e-10
0.00432901
-1.79376e-12
0.00432901
6.58785e-11
0.00432901
7.52297e-10
0.00432901
3.96843e-10
0.004329
2.51204e-10
0.004329
3.0718e-10
0.004329
-6.06093e-10
0.004329
2.03713e-10
0.004329
4.3747e-10
0.004329
-2.78143e-10
0.004329
-1.05837e-09
0.004329
3.79935e-10
0.004329
7.07174e-10
0.00432901
-2.36725e-10
0.00432901
-6.78371e-10
0.00432901
2.1631e-10
0.00432901
4.59441e-10
0.004329
1.09485e-10
0.004329
-9.07221e-10
0.004329
-6.74632e-11
0.004329
3.60721e-10
0.004329
-1.59618e-10
0.004329
-6.39527e-10
0.004329
-1.44512e-10
0.004329
9.54994e-11
0.004329
4.76227e-10
0.004329
-1.70618e-10
0.004329
-3.95845e-10
0.004329
8.24752e-11
0.004329
4.51722e-10
0.004329
-9.64238e-11
0.004329
4.3826e-11
0.004329
2.74143e-10
0.004329
8.31494e-11
0.004329
-1.64605e-11
0.004329
3.34436e-10
0.004329
1.52955e-10
0.004329
3.13669e-11
0.004329
-8.51853e-10
0.004329
5.37196e-10
0.004329
6.3686e-10
0.004329
-4.26435e-10
0.004329
-3.23922e-10
0.004329
3.85201e-10
0.004329
6.09585e-10
0.004329
3.93265e-10
0.004329
-4.92357e-11
0.004329
-9.81503e-11
0.004329
2.04877e-10
0.004329
2.33502e-10
0.004329
1.12177e-10
0.004329
1.06787e-10
0.004329
1.92045e-10
0.004329
-4.75908e-11
0.004329
-2.27875e-10
0.004329
6.05797e-11
0.004329
2.35838e-11
0.004329
-3.09868e-11
0.004329
-6.74551e-11
0.004329
1.82326e-10
0.004329
1.16904e-10
0.004329
4.99016e-10
0.004329
6.66959e-10
0.004329
2.1108e-09
0.004329
3.089e-09
0.00432899
9.41431e-09
0.00432898
1.5991e-08
0.00432896
4.33818e-08
0.00432893
5.04021e-08
0.00432882
1.60257e-07
0.00432882
-2.13721e-08
0.00432706
2.80024e-06
5.33433e-06
0.00495314
0.00298194
0.00492549
0.00014743
0.00492767
-2.69595e-05
0.00491464
4.77925e-05
0.0049167
-1.31856e-05
0.00490984
2.30603e-05
0.00491026
-4.23053e-06
0.00490735
9.49646e-06
0.00490754
-1.77493e-06
0.00490646
3.53504e-06
0.0049066
-8.99719e-07
0.00490623
1.25201e-06
0.00490632
-4.39655e-07
0.0049062
4.46071e-07
0.00490624
-1.98013e-07
0.0049062
1.63592e-07
0.00490622
-8.44838e-08
0.0049062
5.98296e-08
0.00490621
-3.51454e-08
0.0049062
2.30978e-08
0.00490621
-1.38951e-08
0.0049062
9.56875e-09
0.0049062
-4.05836e-09
0.0049062
3.43616e-09
0.0049062
-2.09804e-09
0.0049062
1.15294e-09
0.00490621
-2.61813e-10
0.00490621
3.7355e-10
0.00490621
5.96316e-11
0.00490621
1.27914e-09
0.00490621
8.31079e-10
0.0049062
-6.11161e-11
0.0049062
6.92386e-10
0.0049062
-1.36166e-10
0.0049062
-1.92678e-10
0.00490621
-2.80581e-10
0.00490621
-3.76859e-11
0.00490621
-6.24936e-10
0.0049062
3.28226e-10
0.00490621
4.79186e-10
0.00490621
8.17765e-12
0.00490621
-4.68905e-10
0.00490621
1.56314e-10
0.00490621
-4.0834e-11
0.0049062
6.36992e-11
0.0049062
-8.70115e-10
0.0049062
-1.43356e-10
0.0049062
1.50439e-11
0.0049062
-3.74358e-10
0.0049062
-6.17509e-10
0.0049062
-3.65705e-11
0.0049062
-1.86847e-10
0.0049062
3.52181e-10
0.0049062
-8.92204e-11
0.0049062
-3.34688e-10
0.0049062
-4.16714e-11
0.0049062
6.93133e-10
0.0049062
1.10982e-10
0.0049062
4.59446e-11
0.0049062
2.3215e-10
0.0049062
1.61298e-10
0.0049062
-1.73228e-11
0.0049062
2.01277e-10
0.0049062
-7.03943e-11
0.0049062
3.26832e-11
0.00490621
-7.58235e-10
0.0049062
4.89313e-10
0.00490621
6.58016e-10
0.00490621
-5.83314e-10
0.00490621
-2.75899e-10
0.00490621
6.31858e-10
0.00490621
6.84165e-10
0.00490621
4.65226e-10
0.00490621
2.93351e-11
0.00490621
-1.22676e-10
0.0049062
1.08261e-10
0.0049062
4.01933e-10
0.0049062
3.56531e-10
0.0049062
6.31947e-11
0.0049062
4.77462e-11
0.0049062
-3.29492e-11
0.0049062
-3.36936e-10
0.0049062
-1.37614e-10
0.0049062
-1.3073e-10
0.0049062
-1.3642e-12
0.0049062
-9.56117e-11
0.00490621
1.55545e-10
0.00490621
1.96505e-10
0.0049062
7.32898e-10
0.0049062
1.0432e-09
0.0049062
3.35885e-09
0.0049062
5.44949e-09
0.00490619
1.56816e-08
0.00490618
2.70213e-08
0.00490615
7.22969e-08
0.00490612
8.3693e-08
0.00490599
2.92949e-07
0.00490595
1.39536e-08
0.00490367
5.08385e-06
1.40899e-05
0.00513105
0.0028509
0.00511662
0.000161855
0.0051164
-2.67353e-05
0.00510702
5.71698e-05
0.0051077
-1.38667e-05
0.00510233
2.8431e-05
0.00510219
-4.09578e-06
0.00509985
1.18339e-05
0.00509979
-1.71329e-06
0.00509892
4.40876e-06
0.00509896
-9.38791e-07
0.00509866
1.54812e-06
0.00509871
-4.85859e-07
0.00509861
5.45568e-07
0.00509863
-2.26051e-07
0.0050986
1.97348e-07
0.00509861
-9.79917e-08
0.0050986
7.19399e-08
0.00509861
-4.14264e-08
0.0050986
2.78114e-08
0.00509861
-1.59514e-08
0.0050986
1.132e-08
0.0050986
-4.60655e-09
0.0050986
4.42754e-09
0.0050986
-2.16618e-09
0.0050986
1.04213e-09
0.00509861
-3.88814e-10
0.00509861
9.66511e-10
0.00509861
9.74226e-11
0.00509861
1.39301e-09
0.00509861
1.39361e-09
0.0050986
1.81172e-10
0.0050986
8.87291e-10
0.0050986
-8.55935e-11
0.0050986
-4.27929e-10
0.0050986
-6.42582e-10
0.0050986
3.9858e-11
0.0050986
-4.35285e-10
0.0050986
3.69525e-10
0.0050986
4.88328e-10
0.0050986
2.36053e-10
0.0050986
-4.28357e-10
0.00509861
1.14358e-10
0.0050986
-3.69134e-10
0.0050986
-2.83413e-12
0.0050986
-9.03551e-10
0.0050986
-2.5464e-10
0.0050986
-1.66071e-10
0.0050986
-4.79664e-10
0.0050986
-7.07604e-10
0.0050986
6.24917e-11
0.0050986
-2.43326e-10
0.0050986
2.66419e-10
0.0050986
-1.13435e-10
0.0050986
-2.57386e-10
0.0050986
-5.95095e-11
0.0050986
9.67418e-10
0.0050986
2.6765e-10
0.0050986
-3.95966e-11
0.0050986
1.57469e-10
0.0050986
2.59795e-10
0.0050986
-1.23005e-11
0.0050986
5.79725e-11
0.0050986
-2.56014e-10
0.0050986
8.34979e-11
0.0050986
-5.86939e-10
0.0050986
4.24287e-10
0.0050986
6.74987e-10
0.0050986
-6.45624e-10
0.0050986
-2.73782e-10
0.0050986
8.44134e-10
0.0050986
8.39146e-10
0.0050986
4.889e-10
0.0050986
-8.19965e-13
0.0050986
-9.64467e-11
0.0050986
9.82169e-11
0.0050986
4.99446e-10
0.0050986
5.65094e-10
0.0050986
5.66615e-11
0.0050986
-1.01528e-10
0.0050986
-5.21355e-11
0.0050986
-4.08125e-10
0.0050986
-3.42643e-10
0.0050986
-3.26163e-10
0.0050986
4.00144e-11
0.0050986
-5.73324e-11
0.0050986
1.15238e-10
0.0050986
2.51008e-10
0.0050986
9.84466e-10
0.0050986
1.47239e-09
0.0050986
4.5969e-09
0.0050986
7.81135e-09
0.00509859
2.17114e-08
0.00509858
3.75726e-08
0.00509856
1.00181e-07
0.00509852
1.15104e-07
0.00509838
4.36733e-07
0.00509832
7.38381e-08
0.00509582
7.5839e-06
2.28679e-05
0.00518482
0.00266608
0.00517775
0.000168927
0.00517686
-2.58445e-05
0.00517029
6.37423e-05
0.00517029
-1.38635e-05
0.00516617
3.25474e-05
0.0051658
-3.73043e-06
0.00516394
1.36984e-05
0.00516377
-1.54005e-06
0.00516306
5.10942e-06
0.00516304
-9.1711e-07
0.00516281
1.78406e-06
0.00516282
-5.03902e-07
0.00516275
6.23404e-07
0.00516276
-2.42138e-07
0.00516274
2.22968e-07
0.00516274
-1.06548e-07
0.00516274
8.14661e-08
0.00516274
-4.57984e-08
0.00516274
3.08547e-08
0.00516274
-1.72695e-08
0.00516274
1.28939e-08
0.00516274
-4.92373e-09
0.00516274
5.04907e-09
0.00516274
-2.12042e-09
0.00516274
9.1069e-10
0.00516274
-6.26992e-10
0.00516274
1.54796e-09
0.00516274
1.63578e-10
0.00516274
1.28971e-09
0.00516274
1.91839e-09
0.00516274
7.51493e-10
0.00516274
1.05574e-09
0.00516274
-2.42746e-10
0.00516274
-5.84709e-10
0.00516274
-7.87363e-10
0.00516274
-2.12847e-12
0.00516274
-4.50138e-10
0.00516274
4.09681e-10
0.00516274
6.82072e-10
0.00516274
5.0797e-10
0.00516274
-4.93871e-10
0.00516274
4.7045e-11
0.00516274
-5.82494e-10
0.00516274
-7.07047e-11
0.00516274
-9.8858e-10
0.00516274
-4.11149e-10
0.00516274
-3.0062e-10
0.00516274
-5.76736e-10
0.00516274
-8.09496e-10
0.00516274
2.14716e-10
0.00516274
-1.65946e-10
0.00516274
1.78372e-10
0.00516274
-2.18497e-10
0.00516274
-1.53916e-10
0.00516274
1.17165e-11
0.00516274
1.23123e-09
0.00516274
3.68997e-10
0.00516274
-1.62425e-10
0.00516274
9.32057e-11
0.00516274
3.46585e-10
0.00516274
-4.64497e-11
0.00516274
-7.94065e-11
0.00516274
-4.11213e-10
0.00516274
1.46067e-10
0.00516274
-4.03894e-10
0.00516274
3.67578e-10
0.00516274
7.02728e-10
0.00516274
-6.86326e-10
0.00516274
-3.17318e-10
0.00516274
1.03276e-09
0.00516274
1.03535e-09
0.00516274
4.75927e-10
0.00516274
-8.24824e-11
0.00516274
-1.23043e-11
0.00516274
1.88898e-10
0.00516274
5.60483e-10
0.00516274
7.13235e-10
0.00516274
8.99704e-11
0.00516274
-2.07907e-10
0.00516274
-8.03385e-11
0.00516274
-4.62965e-10
0.00516274
-5.44551e-10
0.00516274
-5.38518e-10
0.00516274
6.47389e-11
0.00516274
1.32446e-11
0.00516274
7.70339e-11
0.00516274
2.92144e-10
0.00516274
1.23969e-09
0.00516274
1.91401e-09
0.00516273
5.75948e-09
0.00516273
1.00133e-08
0.00516273
2.7201e-08
0.00516272
4.69778e-08
0.00516269
1.25546e-07
0.00516266
1.42969e-07
0.00516252
5.80875e-07
0.00516246
1.38516e-07
0.00516009
9.94445e-06
3.04943e-05
0.00519779
0.00246828
0.00519576
0.000170965
0.00519469
-2.47795e-05
0.00519046
6.79707e-05
0.00519007
-1.34692e-05
0.00518709
3.55213e-05
0.00518661
-3.24633e-06
0.0051852
1.51067e-05
0.00518497
-1.30631e-06
0.00518443
5.65e-06
0.00518437
-8.60207e-07
0.00518419
1.96736e-06
0.00518419
-5.03389e-07
0.00518413
6.8199e-07
0.00518413
-2.49146e-07
0.00518412
2.41878e-07
0.00518412
-1.1135e-07
0.00518411
8.84092e-08
0.00518412
-4.85106e-08
0.00518411
3.26729e-08
0.00518412
-1.80936e-08
0.00518411
1.42606e-08
0.00518411
-4.98534e-09
0.00518411
5.33281e-09
0.00518411
-2.12096e-09
0.00518411
8.94203e-10
0.00518412
-8.27433e-10
0.00518412
1.93519e-09
0.00518412
2.59556e-10
0.00518412
1.20175e-09
0.00518412
2.36912e-09
0.00518412
1.36805e-09
0.00518411
1.2734e-09
0.00518411
-4.56922e-10
0.00518411
-7.5953e-10
0.00518411
-8.91886e-10
0.00518411
-8.24292e-11
0.00518411
-5.30767e-10
0.00518411
4.11565e-10
0.00518411
9.35397e-10
0.00518412
8.27849e-10
0.00518412
-5.68777e-10
0.00518412
-1.03898e-10
0.00518411
-7.67574e-10
0.00518411
-1.1829e-10
0.00518411
-1.10188e-09
0.00518411
-6.18332e-10
0.00518411
-4.83799e-10
0.00518411
-6.56913e-10
0.00518411
-8.19052e-10
0.00518411
3.77983e-10
0.00518411
-7.00155e-11
0.00518411
1.10855e-10
0.00518411
-3.21596e-10
0.00518411
-2.97739e-11
0.00518411
1.22641e-10
0.00518411
1.46378e-09
0.00518411
4.52586e-10
0.00518411
-3.07935e-10
0.00518411
6.94209e-12
0.00518411
3.94066e-10
0.00518411
-9.39568e-11
0.00518411
-2.06279e-10
0.00518411
-5.63149e-10
0.00518411
2.24782e-10
0.00518411
-2.24557e-10
0.00518411
3.28775e-10
0.00518411
6.77076e-10
0.00518411
-7.26317e-10
0.00518411
-3.37931e-10
0.00518411
1.16233e-09
0.00518411
1.17135e-09
0.00518411
4.69642e-10
0.00518411
-1.28441e-10
0.00518411
8.21228e-11
0.00518411
3.34819e-10
0.00518411
6.28129e-10
0.00518411
8.1119e-10
0.00518411
1.3998e-10
0.00518411
-2.75098e-10
0.00518411
-1.02236e-10
0.00518411
-5.32834e-10
0.00518411
-7.24691e-10
0.00518411
-7.57765e-10
0.00518411
4.30919e-11
0.00518411
8.32338e-11
0.00518411
4.7077e-11
0.00518411
3.22799e-10
0.00518411
1.46951e-09
0.00518411
2.35515e-09
0.00518411
6.7912e-09
0.00518411
1.19545e-08
0.00518411
3.19505e-08
0.0051841
5.49462e-08
0.00518408
1.47519e-07
0.00518405
1.66485e-07
0.00518392
7.1629e-07
0.00518386
1.99815e-07
0.00518183
1.19703e-05
3.66624e-05
0.00519776
0.00227052
0.00519953
0.000169197
0.00519843
-2.36817e-05
0.00519623
7.01738e-05
0.00519559
-1.28332e-05
0.00519367
3.74428e-05
0.00519314
-2.71512e-06
0.00519217
1.60782e-05
0.00519191
-1.04491e-06
0.00519152
6.03307e-06
0.00519144
-7.79445e-07
0.00519131
2.09748e-06
0.0051913
-4.88013e-07
0.00519126
7.22312e-07
0.00519125
-2.4896e-07
0.00519124
2.54634e-07
0.00519124
-1.13069e-07
0.00519124
9.2761e-08
0.00519124
-4.98531e-08
0.00519124
3.35623e-08
0.00519124
-1.84629e-08
0.00519124
1.53328e-08
0.00519124
-4.9097e-09
0.00519124
5.34417e-09
0.00519124
-2.14784e-09
0.00519124
9.96284e-10
0.00519124
-9.16219e-10
0.00519124
2.12845e-09
0.00519124
3.48263e-10
0.00519124
1.21525e-09
0.00519124
2.78259e-09
0.00519124
1.8989e-09
0.00519124
1.51158e-09
0.00519124
-6.35075e-10
0.00519124
-9.62328e-10
0.00519124
-1.01985e-09
0.00519124
-1.81363e-10
0.00519124
-5.76723e-10
0.00519124
4.25079e-10
0.00519124
1.1886e-09
0.00519124
1.1633e-09
0.00519124
-6.21524e-10
0.00519124
-3.13029e-10
0.00519124
-9.5599e-10
0.00519124
-1.50885e-10
0.00519124
-1.23441e-09
0.00519124
-8.66736e-10
0.00519124
-7.00949e-10
0.00519124
-7.2773e-10
0.00519124
-7.38741e-10
0.00519124
5.63209e-10
0.00519124
3.07136e-12
0.00519124
5.04587e-11
0.00519124
-3.78244e-10
0.00519124
1.32854e-10
0.00519124
2.45114e-10
0.00519124
1.64942e-09
0.00519124
5.178e-10
0.00519124
-4.75409e-10
0.00519124
-1.12292e-10
0.00519124
4.0252e-10
0.00519124
-1.51713e-10
0.00519124
-3.28174e-10
0.00519124
-7.03934e-10
0.00519124
3.19447e-10
0.00519124
-6.62721e-11
0.00519124
2.83468e-10
0.00519124
6.22449e-10
0.00519124
-7.73772e-10
0.00519124
-3.39062e-10
0.00519124
1.25078e-09
0.00519124
1.23846e-09
0.00519124
4.66455e-10
0.00519124
-1.11362e-10
0.00519124
1.92447e-10
0.00519124
4.98924e-10
0.00519124
7.05289e-10
0.00519124
8.84103e-10
0.00519124
1.92451e-10
0.00519124
-3.2477e-10
0.00519124
-1.15383e-10
0.00519124
-6.18045e-10
0.00519124
-8.97477e-10
0.00519124
-9.66764e-10
0.00519124
-1.39254e-11
0.00519124
1.37838e-10
0.00519124
2.07484e-11
0.00519124
3.51753e-10
0.00519124
1.65993e-09
0.00519124
2.76298e-09
0.00519124
7.65311e-09
0.00519124
1.35607e-08
0.00519123
3.57931e-08
0.00519123
6.12604e-08
0.00519121
1.65538e-07
0.00519119
1.85152e-07
0.00519107
8.35937e-07
0.00519101
2.55402e-07
0.00518941
1.35725e-05
4.13236e-05
0.00519394
0.00207658
0.00519872
0.000164415
0.0051976
-2.25584e-05
0.00519717
7.06024e-05
0.00519638
-1.20374e-05
0.00519543
3.83867e-05
0.0051949
-2.18165e-06
0.00519435
1.66308e-05
0.00519408
-7.79783e-07
0.00519385
6.26238e-06
0.00519376
-6.85079e-07
0.00519368
2.17566e-06
0.00519365
-4.61738e-07
0.00519363
7.45233e-07
0.00519362
-2.43012e-07
0.00519362
2.61509e-07
0.00519362
-1.12215e-07
0.00519362
9.45542e-08
0.00519362
-5.00301e-08
0.00519362
3.3791e-08
0.00519362
-1.84211e-08
0.00519362
1.60061e-08
0.00519362
-4.7765e-09
0.00519362
5.16093e-09
0.00519362
-2.14349e-09
0.00519362
1.17108e-09
0.00519362
-8.92364e-10
0.00519362
2.18551e-09
0.00519362
4.08187e-10
0.00519362
1.32786e-09
0.00519362
3.1742e-09
0.00519362
2.29953e-09
0.00519362
1.72819e-09
0.00519362
-7.41231e-10
0.00519362
-1.17317e-09
0.00519362
-1.19581e-09
0.00519362
-2.95031e-10
0.00519362
-5.43185e-10
0.00519362
4.8384e-10
0.00519362
1.39808e-09
0.00519362
1.47348e-09
0.00519362
-6.46373e-10
0.00519362
-5.40153e-10
0.00519362
-1.15349e-09
0.00519362
-1.87209e-10
0.00519361
-1.37885e-09
0.00519361
-1.1451e-09
0.00519361
-9.25228e-10
0.00519361
-7.85623e-10
0.00519361
-6.00921e-10
0.00519361
7.75027e-10
0.00519361
5.646e-11
0.00519361
-5.73573e-12
0.00519361
-3.74195e-10
0.00519361
3.47382e-10
0.00519361
3.67686e-10
0.00519361
1.76728e-09
0.00519361
5.55833e-10
0.00519361
-6.46315e-10
0.00519361
-2.58374e-10
0.00519361
3.77943e-10
0.00519361
-2.10962e-10
0.00519361
-4.33067e-10
0.00519361
-8.14846e-10
0.00519361
4.1315e-10
0.00519362
7.39534e-11
0.00519361
2.18326e-10
0.00519362
5.62747e-10
0.00519362
-8.22623e-10
0.00519362
-3.41645e-10
0.00519362
1.31092e-09
0.00519362
1.25237e-09
0.00519362
4.60197e-10
0.00519362
-3.86002e-11
0.00519362
3.26069e-10
0.00519361
6.64338e-10
0.00519361
7.79537e-10
0.00519361
9.47791e-10
0.00519361
2.43401e-10
0.00519361
-3.7183e-10
0.00519361
-1.29239e-10
0.00519361
-7.0728e-10
0.00519361
-1.06816e-09
0.00519361
-1.16018e-09
0.00519361
-9.102e-11
0.00519361
1.723e-10
0.00519362
-2.44924e-13
0.00519362
3.76914e-10
0.00519361
1.80503e-09
0.00519361
3.10927e-09
0.00519361
8.31975e-09
0.00519361
1.47777e-08
0.00519361
3.86586e-08
0.00519361
6.57375e-08
0.00519359
1.79177e-07
0.00519358
1.98622e-07
0.00519348
9.34302e-07
0.00519343
3.02025e-07
0.00519229
1.47198e-05
4.44978e-05
0.00518934
0.00188724
0.00519658
0.000157184
0.00519539
-2.13742e-05
0.00519652
6.94737e-05
0.00519562
-1.11336e-05
0.00519558
3.8423e-05
0.00519507
-1.67488e-06
0.00519492
1.67828e-05
0.00519467
-5.27767e-07
0.00519459
6.34242e-06
0.00519449
-5.8524e-07
0.00519446
2.20309e-06
0.00519443
-4.27813e-07
0.00519442
7.51402e-07
0.00519441
-2.3244e-07
0.00519441
2.6261e-07
0.00519441
-1.09142e-07
0.00519441
9.40085e-08
0.00519441
-4.92106e-08
0.00519441
3.3497e-08
0.00519441
-1.80195e-08
0.00519441
1.6208e-08
0.00519441
-4.61812e-09
0.00519441
4.85753e-09
0.00519441
-2.06778e-09
0.00519441
1.36002e-09
0.00519441
-7.91774e-10
0.00519441
2.17452e-09
0.00519441
4.46892e-10
0.00519441
1.49131e-09
0.00519441
3.53614e-09
0.00519441
2.58549e-09
0.00519441
1.90176e-09
0.00519441
-7.80795e-10
0.00519441
-1.36911e-09
0.00519441
-1.41295e-09
0.00519441
-4.18552e-10
0.00519441
-4.2683e-10
0.00519441
6.05582e-10
0.00519441
1.54156e-09
0.00519441
1.7307e-09
0.00519441
-6.46445e-10
0.00519441
-7.54744e-10
0.00519441
-1.35815e-09
0.00519441
-2.45621e-10
0.00519441
-1.53078e-09
0.00519441
-1.44421e-09
0.00519441
-1.13774e-09
0.00519441
-8.21837e-10
0.00519441
-4.45259e-10
0.00519441
1.00565e-09
0.00519441
1.08149e-10
0.00519441
-5.09772e-11
0.00519441
-3.17889e-10
0.00519441
6.07198e-10
0.00519441
4.87673e-10
0.00519441
1.80893e-09
0.00519441
5.58399e-10
0.00519441
-8.05673e-10
0.00519441
-4.2228e-10
0.00519441
3.27133e-10
0.00519441
-2.68168e-10
0.00519441
-5.11598e-10
0.00519441
-8.86094e-10
0.00519441
4.85423e-10
0.00519441
2.01767e-10
0.00519441
1.33753e-10
0.00519441
5.0783e-10
0.00519441
-8.63278e-10
0.00519441
-3.65174e-10
0.00519441
1.34812e-09
0.00519441
1.23769e-09
0.00519441
4.52477e-10
0.00519441
6.5835e-11
0.00519441
4.82364e-10
0.00519441
8.29995e-10
0.00519441
8.39351e-10
0.00519441
1.00699e-09
0.00519441
2.94848e-10
0.00519441
-4.19456e-10
0.00519441
-1.53584e-10
0.00519441
-7.92101e-10
0.00519441
-1.23883e-09
0.00519441
-1.34066e-09
0.00519441
-1.72642e-10
0.00519441
1.8922e-10
0.00519441
-1.52034e-11
0.00519441
3.91183e-10
0.00519441
1.90006e-09
0.00519441
3.3718e-09
0.00519441
8.77473e-09
0.0051944
1.55772e-08
0.0051944
4.04475e-08
0.0051944
6.83948e-08
0.00519439
1.88068e-07
0.00519438
2.06757e-07
0.00519431
1.00681e-06
0.00519427
3.37756e-07
0.00519359
1.54064e-05
4.62396e-05
0.0051849
0.00170234
0.00519415
0.000147933
0.00519287
-2.00908e-05
0.00519536
6.69844e-05
0.00519438
-1.01592e-05
0.00519519
3.76223e-05
0.00519473
-1.21478e-06
0.00519495
1.65553e-05
0.00519473
-3.00957e-07
0.00519479
6.27874e-06
0.00519469
-4.86194e-07
0.00519471
2.18122e-06
0.00519467
-3.88851e-07
0.00519468
7.41496e-07
0.00519467
-2.1822e-07
0.00519467
2.58083e-07
0.00519467
-1.04145e-07
0.00519467
9.13666e-08
0.00519467
-4.74875e-08
0.00519467
3.27343e-08
0.00519467
-1.73017e-08
0.00519467
1.58914e-08
0.00519467
-4.4268e-09
0.00519467
4.49206e-09
0.00519467
-1.91587e-09
0.00519467
1.52032e-09
0.00519467
-6.48913e-10
0.00519467
2.13753e-09
0.00519467
4.85195e-10
0.00519467
1.65139e-09
0.00519467
3.85851e-09
0.00519467
2.78747e-09
0.00519467
2.03061e-09
0.00519467
-7.86979e-10
0.00519467
-1.53489e-09
0.00519467
-1.63954e-09
0.00519467
-5.40928e-10
0.00519467
-2.42879e-10
0.00519467
7.87668e-10
0.00519467
1.61442e-09
0.00519467
1.92131e-09
0.00519467
-6.34383e-10
0.00519467
-9.42809e-10
0.00519467
-1.56758e-09
0.00519467
-3.36113e-10
0.00519467
-1.68813e-09
0.00519467
-1.7548e-09
0.00519467
-1.33135e-09
0.00519467
-8.31731e-10
0.00519467
-3.00982e-10
0.00519467
1.23917e-09
0.00519467
1.68816e-10
0.00519467
-7.28544e-11
0.00519467
-2.26608e-10
0.00519467
8.90878e-10
0.00519467
6.04752e-10
0.00519467
1.78284e-09
0.00519467
5.18887e-10
0.00519467
-9.46694e-10
0.00519467
-5.96348e-10
0.00519467
2.50638e-10
0.00519467
-3.2283e-10
0.00519467
-5.60813e-10
0.00519467
-9.20847e-10
0.00519467
5.24333e-10
0.00519467
3.20394e-10
0.00519467
4.30036e-11
0.00519467
4.54341e-10
0.00519467
-8.87588e-10
0.00519467
-4.12929e-10
0.00519467
1.3607e-09
0.00519467
1.21231e-09
0.00519467
4.49105e-10
0.00519467
1.79877e-10
0.00519467
6.54924e-10
0.00519467
9.9881e-10
0.00519467
8.81779e-10
0.00519467
1.0583e-09
0.00519467
3.51037e-10
0.00519467
-4.64301e-10
0.00519467
-1.94062e-10
0.00519467
-8.71341e-10
0.00519467
-1.40572e-09
0.00519467
-1.5121e-09
0.00519467
-2.50543e-10
0.00519467
1.95378e-10
0.00519467
-2.96863e-11
0.00519467
3.84252e-10
0.00519467
1.93655e-09
0.00519467
3.54238e-09
0.00519467
9.00194e-09
0.00519467
1.59217e-08
0.00519467
4.1169e-08
0.00519467
6.92619e-08
0.00519466
1.91966e-07
0.00519466
2.09512e-07
0.00519462
1.05023e-06
0.00519459
3.61561e-07
0.00519436
1.56412e-05
4.66261e-05
0.00518089
0.00152145
0.00519181
0.000137012
0.0051904
-1.8679e-05
0.00519407
6.33132e-05
0.00519305
-9.14228e-06
0.00519462
3.6057e-05
0.00519422
-8.14939e-07
0.0051948
1.59726e-05
0.00519461
-1.07955e-07
0.00519481
6.07822e-06
0.00519472
-3.927e-07
0.00519479
2.1121e-06
0.00519474
-3.46994e-07
0.00519477
7.16307e-07
0.00519475
-2.01203e-07
0.00519476
2.48207e-07
0.00519476
-9.75012e-08
0.00519476
8.69242e-08
0.00519476
-4.49998e-08
0.00519476
3.14928e-08
0.00519476
-1.63073e-08
0.00519476
1.50762e-08
0.00519476
-4.17316e-09
0.00519476
4.10807e-09
0.00519476
-1.69754e-09
0.00519476
1.62469e-09
0.00519476
-4.84497e-10
0.00519476
2.07916e-09
0.00519476
5.4596e-10
0.00519476
1.77919e-09
0.00519476
4.12357e-09
0.00519476
2.93534e-09
0.00519476
2.1144e-09
0.00519476
-8.00054e-10
0.00519476
-1.65815e-09
0.00519476
-1.8444e-09
0.00519476
-6.37911e-10
0.00519476
-1.79134e-11
0.00519476
1.01258e-09
0.00519476
1.62788e-09
0.00519476
2.02786e-09
0.00519476
-6.27356e-10
0.00519476
-1.09848e-09
0.00519476
-1.77935e-09
0.00519476
-4.56451e-10
0.00519476
-1.84952e-09
0.00519476
-2.06717e-09
0.00519476
-1.51036e-09
0.00519476
-8.17113e-10
0.00519476
-1.8217e-10
0.00519476
1.45222e-09
0.00519476
2.44346e-10
0.00519476
-6.51835e-11
0.00519476
-1.10044e-10
0.00519476
1.17056e-09
0.00519476
7.23681e-10
0.00519476
1.70248e-09
0.00519476
4.31097e-10
0.00519476
-1.07181e-09
0.00519476
-7.77691e-10
0.00519476
1.5753e-10
0.00519476
-3.78705e-10
0.00519476
-5.84485e-10
0.00519476
-9.29024e-10
0.00519476
5.30672e-10
0.00519476
4.27462e-10
0.00519476
-3.59073e-11
0.00519476
3.9729e-10
0.00519476
-8.91354e-10
0.00519476
-4.80555e-10
0.00519476
1.34669e-09
0.00519476
1.18575e-09
0.00519476
4.57425e-10
0.00519476
2.94243e-10
0.00519476
8.3097e-10
0.00519476
1.17394e-09
0.00519476
9.11649e-10
0.00519476
1.09381e-09
0.00519476
4.14803e-10
0.00519476
-5.04069e-10
0.00519476
-2.50425e-10
0.00519476
-9.49762e-10
0.00519476
-1.56305e-09
0.00519476
-1.67657e-09
0.00519476
-3.20964e-10
0.00519476
1.95496e-10
0.00519476
-5.21404e-11
0.00519476
3.47958e-10
0.00519476
1.91037e-09
0.00519476
3.61496e-09
0.00519476
8.99756e-09
0.00519476
1.58233e-08
0.00519476
4.08095e-08
0.00519476
6.83549e-08
0.00519476
1.90814e-07
0.00519476
2.06918e-07
0.00519475
1.06272e-06
0.00519474
3.72866e-07
0.00519494
1.54425e-05
4.57489e-05
0.00517737
0.00134408
0.00518967
0.000124712
0.00518811
-1.71207e-05
0.0051928
5.86232e-05
0.00519176
-8.10356e-06
0.00519401
3.38009e-05
0.00519368
-4.83544e-07
0.00519459
1.50621e-05
0.00519444
4.56893e-08
0.00519477
5.74937e-06
0.00519468
-3.08224e-07
0.0051948
1.99847e-06
0.00519476
-3.03962e-07
0.0051948
6.76718e-07
0.00519478
-1.82095e-07
0.00519479
2.33365e-07
0.00519478
-8.94786e-08
0.00519479
8.09701e-08
0.00519479
-4.18666e-08
0.00519479
2.97072e-08
0.00519479
-1.50544e-08
0.00519479
1.3827e-08
0.00519479
-3.84107e-09
0.00519479
3.73897e-09
0.00519479
-1.42995e-09
0.00519479
1.66276e-09
0.00519479
-3.2026e-10
0.00519479
1.9896e-09
0.00519479
6.54156e-10
0.00519479
1.85748e-09
0.00519479
4.31918e-09
0.00519479
3.03137e-09
0.00519479
2.15185e-09
0.00519479
-8.44986e-10
0.00519479
-1.74398e-09
0.00519479
-1.98906e-09
0.00519479
-6.95072e-10
0.00519479
2.27646e-10
0.00519479
1.25594e-09
0.00519479
1.58365e-09
0.00519479
2.04153e-09
0.00519479
-6.44796e-10
0.00519479
-1.21636e-09
0.00519479
-1.98645e-09
0.00519479
-5.99708e-10
0.00519479
-2.01133e-09
0.00519479
-2.37807e-09
0.00519479
-1.67907e-09
0.00519479
-7.80621e-10
0.00519479
-9.77316e-11
0.00519479
1.63116e-09
0.00519479
3.32206e-10
0.00519479
-2.06272e-11
0.00519479
2.4143e-11
0.00519479
1.4283e-09
0.00519479
8.36971e-10
0.00519479
1.58828e-09
0.00519479
2.9573e-10
0.00519479
-1.19753e-09
0.00519479
-9.49724e-10
0.00519479
5.7999e-11
0.00519479
-4.3892e-10
0.00519479
-5.90538e-10
0.00519479
-9.20762e-10
0.00519479
5.15315e-10
0.00519479
5.17427e-10
0.00519479
-8.79291e-11
0.00519479
3.38011e-10
0.00519479
-8.82514e-10
0.00519479
-5.5788e-10
0.00519479
1.30657e-09
0.00519479
1.16129e-09
0.00519479
4.86234e-10
0.00519479
4.03563e-10
0.00519479
1.00065e-09
0.00519479
1.35524e-09
0.00519479
9.35224e-10
0.00519479
1.10702e-09
0.00519479
4.83936e-10
0.00519479
-5.37268e-10
0.00519479
-3.19721e-10
0.00519479
-1.03294e-09
0.00519479
-1.70663e-09
0.00519479
-1.82898e-09
0.00519479
-3.89138e-10
0.00519479
1.92732e-10
0.00519479
-9.19173e-11
0.00519479
2.8497e-10
0.00519479
1.81786e-09
0.00519479
3.58889e-09
0.00519479
8.76498e-09
0.00519479
1.52916e-08
0.00519479
3.93821e-08
0.00519479
6.57283e-08
0.0051948
1.8469e-07
0.00519481
1.99138e-07
0.00519483
1.04364e-06
0.00519483
3.71484e-07
0.00519543
1.48363e-05
4.371e-05
0.00517432
0.00116976
0.00518775
0.000111277
0.00518604
-1.54077e-05
0.0051916
5.3063e-05
0.00519055
-7.05779e-06
0.00519343
3.0929e-05
0.00519317
-2.24095e-07
0.00519437
1.38538e-05
0.00519426
1.5726e-07
0.00519471
5.30229e-06
0.00519464
-2.34939e-07
0.00519479
1.84373e-06
0.00519475
-2.61078e-07
0.0051948
6.23728e-07
0.00519478
-1.61466e-07
0.0051948
2.14019e-07
0.00519479
-8.03339e-08
0.0051948
7.374e-08
0.0051948
-3.81894e-08
0.0051948
2.734e-08
0.0051948
-1.35605e-08
0.0051948
1.22343e-08
0.0051948
-3.43262e-09
0.0051948
3.40263e-09
0.0051948
-1.12622e-09
0.0051948
1.62914e-09
0.0051948
-1.65665e-10
0.0051948
1.85972e-09
0.0051948
8.13379e-10
0.0051948
1.89265e-09
0.0051948
4.42596e-09
0.0051948
3.06441e-09
0.0051948
2.13448e-09
0.0051948
-9.32715e-10
0.0051948
-1.78964e-09
0.0051948
-2.05056e-09
0.0051948
-6.95856e-10
0.0051948
4.74033e-10
0.0051948
1.48332e-09
0.0051948
1.4889e-09
0.0051948
1.95663e-09
0.0051948
-6.98338e-10
0.0051948
-1.28813e-09
0.0051948
-2.17802e-09
0.0051948
-7.61053e-10
0.0051948
-2.17163e-09
0.0051948
-2.67963e-09
0.0051948
-1.8371e-09
0.0051948
-7.28791e-10
0.0051948
-4.60079e-11
0.0051948
1.76685e-09
0.0051948
4.30917e-10
0.0051948
6.03679e-11
0.0051948
1.75531e-10
0.0051948
1.65009e-09
0.0051948
9.35509e-10
0.0051948
1.45501e-09
0.0051948
1.19536e-10
0.0051948
-1.32685e-09
0.0051948
-1.10269e-09
0.0051948
-3.67161e-11
0.0051948
-5.03764e-10
0.0051948
-5.88351e-10
0.0051948
-9.03346e-10
0.0051948
4.93157e-10
0.0051948
5.88458e-10
0.0051948
-1.09035e-10
0.0051948
2.77196e-10
0.0051948
-8.69136e-10
0.0051948
-6.36133e-10
0.0051948
1.24379e-09
0.0051948
1.14003e-09