/*--------------------------------*- C++ -*----------------------------------*\
| =========                 |                                                 |
| \\      /  F ield         | OpenFOAM: The Open Source CFD Toolbox           |
|  \\    /   O peration     | Version:  v1906                                 |
|   \\  /    A nd           | Web:      www.OpenFOAM.com                      |
|    \\/     M anipulation  |                                                 |
\*---------------------------------------------------------------------------*/
FoamFile
{
    version     2.0;
    format      ascii;
    class       surfaceScalarField;
    location    "0.5";
    object      phi;
}
// * * * * * * * * * * * * * * * * * * * * * * * * * * * * * * * * * * * * * //

dimensions      [0 3 -1 0 0 0 0];
oriented        oriented;


internalField   nonuniform List<scalar> 
7860
(
0.00283464
0.00216536
0.00262142
0.00021321
0.0026088
1.26205e-05
0.00260604
2.77019e-06
0.00260851
-2.46996e-06
0.00260701
1.49719e-06
0.0026057
1.30832e-06
0.00260394
1.76118e-06
0.00260255
1.38453e-06
0.00260134
1.21316e-06
0.00260039
9.52719e-07
0.00259962
7.67867e-07
0.00259902
5.93699e-07
0.00259857
4.57175e-07
0.00259823
3.39879e-07
0.00259798
2.49383e-07
0.0025978
1.81234e-07
0.00259767
1.28318e-07
0.00259758
8.67154e-08
0.00259752
5.96173e-08
0.00259748
4.16741e-08
0.00259745
2.82566e-08
0.00259743
1.73756e-08
0.00259742
1.1359e-08
0.00259741
7.4134e-09
0.00259741
5.32045e-09
0.00259741
3.54254e-09
0.0025974
2.15535e-09
0.0025974
1.00559e-09
0.0025974
8.00292e-10
0.0025974
8.74067e-10
0.0025974
7.13983e-10
0.0025974
6.89544e-11
0.0025974
2.902e-10
0.0025974
1.88067e-10
0.0025974
4.36523e-11
0.0025974
1.48048e-10
0.0025974
3.20366e-10
0.0025974
1.87108e-10
0.0025974
-8.16428e-11
0.0025974
-2.3464e-10
0.0025974
5.06284e-10
0.0025974
9.18957e-11
0.0025974
-1.57618e-10
0.0025974
-2.71201e-10
0.0025974
1.5794e-10
0.0025974
2.67814e-11
0.0025974
-1.84079e-10
0.0025974
-2.23029e-10
0.0025974
-2.0482e-12
0.0025974
1.29888e-12
0.0025974
1.12327e-10
0.0025974
-9.00288e-11
0.0025974
2.15771e-11
0.0025974
-2.58555e-11
0.0025974
2.53724e-10
0.0025974
1.87872e-10
0.0025974
1.50433e-10
0.0025974
-1.31456e-10
0.0025974
1.46318e-10
0.0025974
2.36377e-10
0.0025974
1.91996e-10
0.0025974
4.05069e-12
0.0025974
-3.75307e-12
0.0025974
5.72331e-11
0.0025974
6.12419e-11
0.0025974
-7.77958e-11
0.0025974
-1.73668e-10
0.0025974
-8.43905e-11
0.0025974
2.00544e-11
0.0025974
3.40358e-11
0.0025974
-7.38432e-11
0.0025974
-4.68278e-11
0.0025974
3.99368e-11
0.0025974
-8.68114e-11
0.0025974
9.30828e-13
0.0025974
-6.04068e-11
0.0025974
-3.59661e-11
0.0025974
-2.17869e-11
0.0025974
8.70313e-11
0.0025974
1.1707e-10
0.0025974
2.64518e-10
0.0025974
4.74338e-10
0.0025974
7.85298e-10
0.00259739
1.21269e-09
0.00259739
1.88678e-09
0.00259739
3.05614e-09
0.00259738
4.95309e-09
0.00259738
7.5829e-09
0.00259737
1.15038e-08
0.00259735
1.709e-08
0.00259733
2.39902e-08
0.00259729
3.18796e-08
0.00259726
3.66011e-08
0.00259722
3.37813e-08
0.0025972
2.46159e-08
0.00259709
1.06287e-07
0.00259639
7.04002e-07
0.00259377
2.61637e-06
-1.17777e-06
0.00456827
0.00259709
0.00437572
0.000405769
0.00434651
4.18258e-05
0.00434238
6.89965e-06
0.00434504
-5.13028e-06
0.00434319
3.34446e-06
0.00434127
3.23025e-06
0.00433879
4.24307e-06
0.00433675
3.41842e-06
0.00433497
2.99211e-06
0.00433355
2.37188e-06
0.0043324
1.91619e-06
0.00433151
1.48946e-06
0.00433081
1.14989e-06
0.00433029
8.62576e-07
0.00432991
6.36555e-07
0.00432963
4.59121e-07
0.00432943
3.26449e-07
0.00432929
2.26861e-07
0.00432919
1.56625e-07
0.00432913
1.06549e-07
0.00432908
7.10361e-08
0.00432905
4.56727e-08
0.00432903
3.0776e-08
0.00432902
2.04914e-08
0.00432901
1.40167e-08
0.00432901
8.61464e-09
0.00432901
5.06525e-09
0.004329
3.18941e-09
0.004329
2.50344e-09
0.004329
1.89981e-09
0.004329
1.65064e-09
0.004329
7.02099e-10
0.004329
9.25714e-10
0.004329
6.71674e-10
0.004329
3.09388e-10
0.004329
3.0975e-11
0.004329
3.66617e-10
0.004329
3.20916e-10
0.004329
1.69737e-10
0.004329
-2.54513e-10
0.004329
5.97947e-10
0.004329
1.58031e-10
0.004329
1.31559e-10
0.004329
-3.4606e-10
0.004329
-8.81977e-11
0.004329
-3.77869e-10
0.004329
-5.2555e-10
0.004329
-6.11775e-10
0.004329
-1.65126e-10
0.004329
-4.06222e-10
0.004329
-1.4268e-10
0.004329
-1.20707e-10
0.004329
2.56489e-10
0.004329
-1.02031e-10
0.004329
2.59542e-10
0.004329
1.85076e-10
0.004329
3.79914e-10
0.004329
-8.7698e-11
0.004329
2.19645e-10
0.004329
2.94549e-10
0.004329
4.38445e-10
0.004329
1.54583e-10
0.004329
1.72384e-10
0.004329
3.70092e-11
0.004329
1.0493e-10
0.004329
-1.45926e-10
0.004329
-1.40578e-10
0.004329
-2.36409e-10
0.004329
-6.9605e-11
0.004329
-1.16812e-10
0.004329
-5.53697e-11
0.004329
-1.8475e-10
0.004329
-1.39271e-11
0.004329
-2.14822e-10
0.004329
1.46396e-11
0.004329
-1.37807e-10
0.004329
-5.35169e-11
0.004329
-6.51758e-11
0.004329
2.32103e-10
0.004329
3.42127e-10
0.004329
7.32573e-10
0.00432899
1.14416e-09
0.00432899
2.0134e-09
0.00432899
3.13673e-09
0.00432899
5.02622e-09
0.00432898
7.92759e-09
0.00432898
1.27173e-08
0.00432896
1.95684e-08
0.00432895
2.95272e-08
0.00432892
4.35433e-08
0.00432888
6.12147e-08
0.00432883
8.23667e-08
0.00432877
9.82819e-08
0.0043287
1.06064e-07
0.00432861
1.16508e-07
0.00432828
4.29164e-07
0.00432694
2.04798e-06
0.00432234
7.21629e-06
7.93996e-06
0.00507266
0.00252443
0.00495578
0.000522652
0.00492272
7.48809e-05
0.00492014
9.48125e-06
0.00492166
-6.64663e-06
0.00492023
4.78194e-06
0.00491828
5.17792e-06
0.00491594
6.58015e-06
0.00491394
5.4197e-06
0.00491221
4.72859e-06
0.0049108
3.77881e-06
0.00490966
3.05788e-06
0.00490876
2.38877e-06
0.00490807
1.8474e-06
0.00490754
1.39276e-06
0.00490714
1.0324e-06
0.00490685
7.45599e-07
0.00490665
5.31069e-07
0.0049065
3.72458e-07
0.0049064
2.5796e-07
0.00490633
1.74887e-07
0.00490629
1.16409e-07
0.00490626
7.5967e-08
0.00490624
5.12315e-08
0.00490622
3.36903e-08
0.00490621
2.23041e-08
0.00490621
1.36925e-08
0.00490621
8.21323e-09
0.0049062
5.50756e-09
0.0049062
4.14082e-09
0.0049062
2.76088e-09
0.0049062
2.35185e-09
0.0049062
1.34223e-09
0.0049062
1.41703e-09
0.0049062
9.02328e-10
0.0049062
3.683e-10
0.0049062
-1.31517e-10
0.0049062
2.56301e-10
0.0049062
2.66502e-10
0.0049062
3.74201e-10
0.0049062
-1.06276e-10
0.0049062
6.14225e-10
0.0049062
1.65111e-10
0.0049062
2.51352e-10
0.0049062
-3.90369e-10
0.0049062
-3.38808e-10
0.0049062
-7.38956e-10
0.0049062
-8.31144e-10
0.0049062
-1.03488e-09
0.0049062
-3.77404e-10
0.0049062
-6.27647e-10
0.0049062
-3.34057e-10
0.0049062
-2.74187e-10
0.0049062
3.24676e-10
0.0049062
-1.41196e-10
0.0049062
1.96415e-10
0.0049062
1.42067e-11
0.0049062
3.98517e-10
0.0049062
-3.39342e-11
0.0049062
3.34418e-10
0.0049062
3.81029e-10
0.0049062
6.33259e-10
0.0049062
3.0848e-10
0.0049062
3.71567e-10
0.0049062
3.46854e-11
0.0049062
1.14246e-10
0.0049062
-2.62092e-10
0.0049062
-1.37079e-10
0.0049062
-3.37021e-10
0.0049062
-9.80357e-11
0.0049062
-2.40698e-10
0.0049062
-6.17406e-13
0.0049062
-2.36025e-10
0.0049062
-1.26298e-11
0.0049062
-2.80614e-10
0.0049062
-1.53868e-12
0.0049062
-1.94222e-10
0.0049062
-4.22151e-11
0.0049062
-7.26816e-11
0.00490619
3.9047e-10
0.00490619
6.40187e-10
0.00490619
1.32806e-09
0.00490619
1.98616e-09
0.00490619
3.39064e-09
0.00490619
5.23524e-09
0.00490619
8.42248e-09
0.00490618
1.31443e-08
0.00490617
2.08469e-08
0.00490616
3.20394e-08
0.00490614
4.81801e-08
0.00490612
7.08444e-08
0.00490608
9.98315e-08
0.00490602
1.36142e-07
0.00490595
1.68136e-07
0.00490586
2.03522e-07
0.00490571
2.65655e-07
0.00490522
9.10578e-07
0.00490359
3.67987e-06
0.00489773
1.30788e-05
2.27855e-05
0.00521043
0.00231401
0.00513984
0.000593234
0.00511247
0.000102261
0.00511107
1.08833e-05
0.00511192
-7.50056e-06
0.00511086
5.84399e-06
0.00510917
6.87135e-06
0.0051072
8.54769e-06
0.00510547
7.1509e-06
0.00510397
6.23134e-06
0.00510273
5.01159e-06
0.00510173
4.06321e-06
0.00510093
3.18777e-06
0.0051003
2.47324e-06
0.00509983
1.86947e-06
0.00509947
1.39101e-06
0.00509921
1.00788e-06
0.00509902
7.19568e-07
0.00509888
5.06907e-07
0.00509879
3.51977e-07
0.00509873
2.39032e-07
0.00509868
1.59531e-07
0.00509865
1.04716e-07
0.00509863
7.04019e-08
0.00509862
4.59825e-08
0.00509861
3.00685e-08
0.00509861
1.87894e-08
0.0050986
1.15623e-08
0.0050986
7.72016e-09
0.0050986
5.54736e-09
0.0050986
3.61626e-09
0.0050986
3.09899e-09
0.0050986
2.03707e-09
0.0050986
1.91754e-09
0.0050986
1.11197e-09
0.0050986
3.22041e-10
0.0050986
-2.20736e-10
0.0050986
2.89934e-10
0.0050986
3.01476e-10
0.0050986
4.97415e-10
0.0050986
3.87426e-11
0.0050986
7.11691e-10
0.0050986
2.9924e-10
0.0050986
3.45428e-10
0.0050986
-4.54815e-10
0.0050986
-5.13257e-10
0.0050986
-9.90906e-10
0.0050986
-1.09208e-09
0.0050986
-1.42867e-09
0.0050986
-6.79088e-10
0.0050986
-8.05008e-10
0.0050986
-4.46942e-10
0.0050986
-4.11432e-10
0.0050986
2.76348e-10
0.0050986
-1.77474e-10
0.0050986
1.62335e-10
0.0050986
-1.0272e-10
0.0050986
3.83798e-10
0.0050986
1.55222e-11
0.0050986
4.5168e-10
0.0050986
5.48347e-10
0.0050986
8.4447e-10
0.0050986
4.74362e-10
0.0050986
5.43208e-10
0.00509859
8.0195e-11
0.0050986
1.38644e-10
0.00509859
-3.33015e-10
0.0050986
-1.84342e-10
0.0050986
-4.16921e-10
0.0050986
-1.2049e-10
0.0050986
-3.24106e-10
0.0050986
-3.94559e-12
0.0050986
-2.75664e-10
0.0050986
-1.7613e-11
0.00509859
-3.08285e-10
0.00509859
-3.59118e-11
0.00509859
-2.4663e-10
0.00509859
-3.16468e-11
0.00509859
-4.71609e-11
0.00509859
5.32266e-10
0.00509859
9.34008e-10
0.00509859
1.8854e-09
0.00509859
2.83186e-09
0.00509859
4.71248e-09
0.00509859
7.251e-09
0.00509859
1.16343e-08
0.00509858
1.80821e-08
0.00509857
2.84362e-08
0.00509856
4.3588e-08
0.00509855
6.53423e-08
0.00509852
9.59787e-08
0.00509849
1.35709e-07
0.00509843
1.87759e-07
0.00509836
2.3968e-07
0.00509825
3.16601e-07
0.00509806
4.54234e-07
0.00509749
1.48502e-06
0.00509582
5.34355e-06
0.00508954
1.93604e-05
3.78761e-05
0.00523368
0.00208033
0.00519439
0.000632525
0.00517351
0.000123143
0.00517299
1.14013e-05
0.00517345
-7.95829e-06
0.00517275
6.53782e-06
0.00517139
8.23006e-06
0.00516985
1.00966e-05
0.00516845
8.54571e-06
0.00516723
7.4482e-06
0.00516622
6.02258e-06
0.00516539
4.89437e-06
0.00516472
3.85482e-06
0.0051642
2.9951e-06
0.0051638
2.27312e-06
0.00516349
1.6971e-06
0.00516327
1.23382e-06
0.0051631
8.83207e-07
0.00516299
6.24185e-07
0.0051629
4.34536e-07
0.00516285
2.95908e-07
0.00516281
1.97958e-07
0.00516278
1.30349e-07
0.00516276
8.74093e-08
0.00516275
5.71022e-08
0.00516275
3.73289e-08
0.00516274
2.36559e-08
0.00516274
1.4757e-08
0.00516274
9.7376e-09
0.00516273
6.80977e-09
0.00516273
4.50797e-09
0.00516273
3.92379e-09
0.00516273
2.73472e-09
0.00516273
2.34835e-09
0.00516273
1.34111e-09
0.00516273
3.28502e-10
0.00516273
-2.68333e-10
0.00516273
3.46147e-10
0.00516273
4.01179e-10
0.00516273
6.42301e-10
0.00516273
1.85635e-10
0.00516273
8.07874e-10
0.00516273
4.73761e-10
0.00516273
4.99408e-10
0.00516273
-4.90377e-10
0.00516273
-6.65998e-10
0.00516273
-1.19947e-09
0.00516273
-1.32802e-09
0.00516273
-1.77103e-09
0.00516273
-1.00136e-09
0.00516273
-1.00282e-09
0.00516273
-5.49051e-10
0.00516273
-5.22656e-10
0.00516273
1.96736e-10
0.00516273
-2.16057e-10
0.00516273
1.33032e-10
0.00516273
-1.9958e-10
0.00516273
3.73797e-10
0.00516273
8.45353e-11
0.00516273
5.63849e-10
0.00516273
7.33556e-10
0.00516273
1.06965e-09
0.00516273
6.63709e-10
0.00516273
7.11256e-10
0.00516273
1.48876e-10
0.00516273
1.78924e-10
0.00516273
-3.57848e-10
0.00516273
-2.36572e-10
0.00516273
-4.93371e-10
0.00516273
-1.52084e-10
0.00516273
-3.8902e-10
0.00516273
-4.3915e-11
0.00516273
-3.28826e-10
0.00516273
-4.35768e-11
0.00516273
-3.25747e-10
0.00516273
-8.21446e-11
0.00516273
-3.08265e-10
0.00516273
-3.65032e-11
0.00516273
-1.96705e-11
0.00516273
6.49792e-10
0.00516273
1.1961e-09
0.00516273
2.36883e-09
0.00516273
3.58735e-09
0.00516273
5.88889e-09
0.00516272
9.05652e-09
0.00516272
1.44909e-08
0.00516272
2.24731e-08
0.00516271
3.5089e-08
0.0051627
5.36488e-08
0.00516269
8.02275e-08
0.00516266
1.17816e-07
0.00516263
1.67276e-07
0.00516258
2.34826e-07
0.00516252
3.09204e-07
0.0051624
4.36852e-07
0.00516218
6.64771e-07
0.00516159
2.07492e-06
0.00516002
6.91916e-06
0.00515412
2.52589e-05
5.10195e-05
0.00522288
0.00185745
0.00520672
0.00064868
0.00519184
0.000138023
0.00519193
1.13089e-05
0.00519217
-8.19162e-06
0.0051918
6.90483e-06
0.00519079
9.24006e-06
0.00518965
1.12289e-05
0.0051886
9.59708e-06
0.00518768
8.37138e-06
0.0051869
6.80208e-06
0.00518625
5.54113e-06
0.00518573
4.37954e-06
0.00518531
3.41024e-06
0.00518499
2.5965e-06
0.00518474
1.94515e-06
0.00518456
1.41866e-06
0.00518442
1.01823e-06
0.00518432
7.21869e-07
0.00518425
5.03469e-07
0.00518421
3.43296e-07
0.00518417
2.3045e-07
0.00518415
1.52098e-07
0.00518414
1.01889e-07
0.00518413
6.67679e-08
0.00518412
4.38145e-08
0.00518412
2.80266e-08
0.00518411
1.75366e-08
0.00518411
1.14908e-08
0.00518411
7.99511e-09
0.00518411
5.38174e-09
0.00518411
4.70369e-09
0.00518411
3.35105e-09
0.00518411
2.66573e-09
0.00518411
1.5024e-09
0.00518411
3.8274e-10
0.00518411
-2.90472e-10
0.00518411
3.56097e-10
0.00518411
4.85855e-10
0.00518411
7.98568e-10
0.00518411
3.26509e-10
0.00518411
8.78125e-10
0.00518411
5.83e-10
0.00518411
6.70134e-10
0.00518411
-4.77528e-10
0.00518411
-7.9776e-10
0.00518411
-1.40351e-09
0.00518411
-1.52452e-09
0.00518411
-2.02965e-09
0.00518411
-1.28325e-09
0.00518411
-1.19654e-09
0.00518411
-6.50522e-10
0.00518411
-6.13112e-10
0.00518411
1.18548e-10
0.00518411
-2.72763e-10
0.00518411
8.54447e-11
0.00518411
-3.01317e-10
0.00518411
3.4375e-10
0.00518411
1.61258e-10
0.00518411
6.77299e-10
0.00518411
9.00765e-10
0.00518411
1.2808e-09
0.00518411
8.5293e-10
0.00518411
8.72382e-10
0.00518411
2.14799e-10
0.00518411
2.12021e-10
0.00518411
-3.64688e-10
0.00518411
-2.79313e-10
0.00518411
-5.6606e-10
0.00518411
-1.84975e-10
0.00518411
-4.30332e-10
0.00518411
-8.54464e-11
0.00518411
-3.80199e-10
0.00518411
-7.81744e-11
0.00518411
-3.45014e-10
0.00518411
-1.25442e-10
0.00518411
-3.76276e-10
0.00518411
-5.71411e-11
0.00518411
9.43752e-12
0.00518411
7.50791e-10
0.00518411
1.4219e-09
0.00518411
2.78017e-09
0.0051841
4.23269e-09
0.0051841
6.8927e-09
0.0051841
1.05985e-08
0.0051841
1.69037e-08
0.0051841
2.61937e-08
0.00518409
4.06163e-08
0.00518408
6.1947e-08
0.00518407
9.24859e-08
0.00518405
1.35873e-07
0.00518403
1.938e-07
0.00518398
2.76008e-07
0.00518392
3.73107e-07
0.0051838
5.56118e-07
0.00518359
8.78308e-07
0.00518301
2.64997e-06
0.00518163
8.30506e-06
0.00517657
3.03151e-05
6.16622e-05
0.00520414
0.00165331
0.00520562
0.000647201
0.00519612
0.000147516
0.00519662
1.08089e-05
0.00519672
-8.29174e-06
0.00519663
6.99267e-06
0.00519596
9.91306e-06
0.00519522
1.19704e-05
0.0051945
1.03173e-05
0.00519386
9.01023e-06
0.00519331
7.35377e-06
0.00519284
6.00459e-06
0.00519246
4.76131e-06
0.00519216
3.71678e-06
0.00519192
2.83773e-06
0.00519173
2.1326e-06
0.00519159
1.55986e-06
0.00519148
1.12232e-06
0.00519141
7.97969e-07
0.00519135
5.57703e-07
0.00519131
3.80835e-07
0.00519129
2.56223e-07
0.00519127
1.69532e-07
0.00519126
1.13634e-07
0.00519125
7.47248e-08
0.00519125
4.92403e-08
0.00519124
3.15929e-08
0.00519124
1.98241e-08
0.00519124
1.29619e-08
0.00519124
9.08555e-09
0.00519124
6.18428e-09
0.00519124
5.3594e-09
0.00519124
3.85488e-09
0.00519124
2.88429e-09
0.00519124
1.5674e-09
0.00519124
4.29285e-10
0.00519124
-2.89574e-10
0.00519124
3.27915e-10
0.00519124
5.18681e-10
0.00519124
9.25302e-10
0.00519124
4.51745e-10
0.00519124
9.29587e-10
0.00519124
6.09864e-10
0.00519123
8.10067e-10
0.00519123
-4.22213e-10
0.00519123
-8.99321e-10
0.00519123
-1.59609e-09
0.00519123
-1.67545e-09
0.00519123
-2.19237e-09
0.00519123
-1.49699e-09
0.00519123
-1.36992e-09
0.00519123
-7.47123e-10
0.00519123
-6.87305e-10
0.00519123
4.57315e-11
0.00519123
-3.4943e-10
0.00519123
2.12273e-11
0.00519123
-4.07451e-10
0.00519123
2.84234e-10
0.00519123
2.27807e-10
0.00519123
7.89777e-10
0.00519123
1.04071e-09
0.00519123
1.4564e-09
0.00519123
1.02255e-09
0.00519123
1.01915e-09
0.00519123
2.69238e-10
0.00519123
2.26863e-10
0.00519123
-3.65719e-10
0.00519123
-3.05976e-10
0.00519123
-6.27413e-10
0.00519123
-2.14789e-10
0.00519123
-4.48006e-10
0.00519123
-1.11381e-10
0.00519123
-4.19352e-10
0.00519123
-1.13438e-10
0.00519123
-3.65242e-10
0.00519123
-1.59445e-10
0.00519123
-4.41465e-10
0.00519123
-8.67244e-11
0.00519123
4.34105e-11
0.00519123
8.41668e-10
0.00519123
1.61217e-09
0.00519123
3.12288e-09
0.00519123
4.76272e-09
0.00519123
7.70705e-09
0.00519123
1.18414e-08
0.00519123
1.88259e-08
0.00519122
2.90678e-08
0.00519122
4.49525e-08
0.00519121
6.83677e-08
0.0051912
1.0197e-07
0.00519119
1.49932e-07
0.00519117
2.1487e-07
0.00519114
3.10228e-07
0.00519108
4.29484e-07
0.00519097
6.67494e-07
0.00519077
1.08098e-06
0.00519024
3.17104e-06
0.00518911
9.44297e-06
0.0051851
3.43191e-05
6.97064e-05
0.00518548
0.00146783
0.00520065
0.000632035
0.00519592
0.000152242
0.00519667
1.00544e-05
0.00519668
-8.29608e-06
0.00519682
6.85165e-06
0.00519646
1.02718e-05
0.00519608
1.23528e-05
0.00519567
1.07263e-05
0.0051953
9.38001e-06
0.00519497
7.68664e-06
0.00519468
6.29057e-06
0.00519444
5.00301e-06
0.00519424
3.91515e-06
0.00519408
2.9968e-06
0.00519396
2.25862e-06
0.00519386
1.6564e-06
0.00519379
1.19439e-06
0.00519374
8.51438e-07
0.0051937
5.96422e-07
0.00519367
4.0791e-07
0.00519365
2.74898e-07
0.00519364
1.82364e-07
0.00519363
1.22446e-07
0.00519362
8.07736e-08
0.00519362
5.32879e-08
0.00519362
3.42534e-08
0.00519362
2.16159e-08
0.00519361
1.41512e-08
0.00519361
1.00433e-08
0.00519361
6.88867e-09
0.00519361
5.86269e-09
0.00519361
4.22796e-09
0.00519361
3.01985e-09
0.00519361
1.56416e-09
0.00519361
4.32788e-10
0.00519361
-2.81082e-10
0.00519361
2.75238e-10
0.00519361
5.04159e-10
0.00519361
1.00129e-09
0.00519361
5.54479e-10
0.00519361
9.75667e-10
0.00519361
5.84767e-10
0.00519361
8.8543e-10
0.00519361
-3.40747e-10
0.00519361
-9.5682e-10
0.00519361
-1.75043e-09
0.00519361
-1.78739e-09
0.00519361
-2.2762e-09
0.00519361
-1.63987e-09
0.00519361
-1.51142e-09
0.00519361
-8.41495e-10
0.00519361
-7.56434e-10
0.00519361
-2.60151e-11
0.00519361
-4.38229e-10
0.00519361
-5.86348e-11
0.00519361
-5.13112e-10
0.00519361
1.92709e-10
0.00519361
2.70756e-10
0.00519361
8.95491e-10
0.00519361
1.15857e-09
0.00519361
1.5873e-09
0.00519361
1.16288e-09
0.00519361
1.1494e-09
0.00519361
3.22116e-10
0.00519361
2.24621e-10
0.00519361
-3.6421e-10
0.00519361
-3.13016e-10
0.00519361
-6.65993e-10
0.00519361
-2.40254e-10
0.00519361
-4.5071e-10
0.00519361
-1.24321e-10
0.00519361
-4.41548e-10
0.00519361
-1.46318e-10
0.00519361
-3.89045e-10
0.00519361
-1.87987e-10
0.00519361
-4.93624e-10
0.00519361
-1.21519e-10
0.00519361
7.94393e-11
0.00519361
9.21028e-10
0.00519361
1.76449e-09
0.00519361
3.39274e-09
0.00519361
5.17438e-09
0.00519361
8.31421e-09
0.00519361
1.27517e-08
0.0051936
2.02263e-08
0.0051936
3.11002e-08
0.0051936
4.79439e-08
0.0051936
7.28726e-08
0.00519359
1.08611e-07
0.00519358
1.59875e-07
0.00519356
2.30196e-07
0.00519354
3.36657e-07
0.00519349
4.76029e-07
0.00519339
7.64594e-07
0.00519322
1.25958e-06
0.00519278
3.60687e-06
0.00519192
1.03003e-05
0.00518906
3.7184e-05
7.51792e-05
0.00516897
0.00129886
0.00519496
0.000606051
0.00519442
0.000152777
0.00519531
9.15973e-06
0.00519523
-8.21169e-06
0.00519555
6.53146e-06
0.00519548
1.03434e-05
0.00519542
1.24089e-05
0.0051953
1.08467e-05
0.00519518
9.49834e-06
0.00519506
7.8122e-06
0.00519494
6.40705e-06
0.00519484
5.10948e-06
0.00519475
4.00789e-06
0.00519467
3.07505e-06
0.0051946
2.32355e-06
0.00519455
1.7081e-06
0.00519451
1.23406e-06
0.00519448
8.81855e-07
0.00519446
6.19125e-07
0.00519444
4.24052e-07
0.00519443
2.86214e-07
0.00519442
1.90374e-07
0.00519442
1.28099e-07
0.00519441
8.47266e-08
0.00519441
5.59283e-08
0.00519441
3.60409e-08
0.00519441
2.28356e-08
0.00519441
1.50663e-08
0.00519441
1.08253e-08
0.00519441
7.46903e-09
0.00519441
6.21893e-09
0.00519441
4.47773e-09
0.00519441
3.08323e-09
0.00519441
1.53344e-09
0.00519441
3.9356e-10
0.00519441
-2.81937e-10
0.00519441
2.07394e-10
0.00519441
4.64283e-10
0.0051944
1.03782e-09
0.0051944
6.37495e-10
0.0051944
1.02002e-09
0.0051944
5.43772e-10
0.0051944
8.95639e-10
0.0051944
-2.48364e-10
0.0051944
-9.65808e-10
0.0051944
-1.85021e-09
0.0051944
-1.86884e-09
0.0051944
-2.30928e-09
0.0051944
-1.72985e-09
0.0051944
-1.62247e-09
0.0051944
-9.38445e-10
0.0051944
-8.28675e-10
0.0051944
-1.06039e-10
0.0051944
-5.35484e-10
0.0051944
-1.56259e-10
0.0051944
-6.14916e-10
0.0051944
7.49578e-11
0.0051944
2.84715e-10
0.0051944
9.89741e-10
0.0051944
1.26374e-09
0.0051944
1.6789e-09
0.0051944
1.2713e-09
0.0051944
1.26464e-09
0.0051944
3.88629e-10
0.0051944
2.18204e-10
0.0051944
-3.58298e-10
0.0051944
-3.00439e-10
0.0051944
-6.75676e-10
0.0051944
-2.62677e-10
0.0051944
-4.48591e-10
0.0051944
-1.34483e-10
0.0051944
-4.50145e-10
0.0051944
-1.75963e-10
0.0051944
-4.18283e-10
0.0051944
-2.20088e-10
0.0051944
-5.28874e-10
0.0051944
-1.58262e-10
0.0051944
1.11451e-10
0.0051944
9.82912e-10
0.0051944
1.86823e-09
0.0051944
3.5751e-09
0.0051944
5.45723e-09
0.0051944
8.69687e-09
0.0051944
1.33169e-08
0.0051944
2.10238e-08
0.0051944
3.23077e-08
0.0051944
4.96777e-08
0.00519439
7.54178e-08
0.00519439
1.12365e-07
0.00519438
1.65628e-07
0.00519438
2.39564e-07
0.00519436
3.54542e-07
0.00519432
5.10627e-07
0.00519425
8.41832e-07
0.0051941
1.40317e-06
0.00519377
3.93546e-06
0.00519322
1.08582e-05
0.00519151
3.88869e-05
7.81761e-05
0.00515488
0.00114398
0.00518952
0.000571406
0.00519267
0.000149634
0.00519362
8.2048e-06
0.00519344
-8.03109e-06
0.0051939
6.07815e-06
0.00519408
1.01567e-05
0.00519432
1.21709e-05
0.00519447
1.07019e-05
0.00519458
9.38407e-06
0.00519465
7.74367e-06
0.00519469
6.36367e-06
0.00519471
5.08726e-06
0.00519472
3.99913e-06
0.00519472
3.07508e-06
0.00519472
2.3289e-06
0.00519471
1.7157e-06
0.0051947
1.24166e-06
0.0051947
8.89256e-07
0.00519469
6.25698e-07
0.00519468
4.29105e-07
0.00519468
2.90024e-07
0.00519468
1.93418e-07
0.00519468
1.30447e-07
0.00519467
8.64883e-08
0.00519467
5.71228e-08
0.00519467
3.69459e-08
0.00519467
2.35744e-08
0.00519467
1.56831e-08
0.00519467
1.13855e-08
0.00519467
7.88521e-09
0.00519467
6.43157e-09
0.00519467
4.61977e-09
0.00519467
3.07721e-09
0.00519467
1.49153e-09
0.00519467
3.27758e-10
0.00519467
-2.91019e-10
0.00519467
1.3142e-10
0.00519467
4.09317e-10
0.00519467
1.04928e-09
0.00519467
7.04879e-10
0.00519467
1.06229e-09
0.00519467
5.05149e-10
0.00519467
8.53605e-10
0.00519467
-1.58146e-10
0.00519467
-9.36437e-10
0.00519467
-1.8899e-09
0.00519467
-1.9228e-09
0.00519467
-2.31551e-09
0.00519467
-1.78707e-09
0.00519467
-1.71385e-09
0.00519467
-1.04344e-09
0.00519467
-9.07939e-10
0.00519467
-1.98614e-10
0.00519467
-6.41008e-10
0.00519467
-2.71168e-10
0.00519467
-7.08983e-10
0.00519467
-5.63487e-11
0.00519467
2.70328e-10
0.00519467
1.06684e-09
0.00519467
1.36509e-09
0.00519467
1.74535e-09
0.00519467
1.35134e-09
0.00519467
1.36183e-09
0.00519467
4.71171e-10
0.00519467
2.20791e-10
0.00519467
-3.4775e-10
0.00519467
-2.73284e-10
0.00519467
-6.55951e-10
0.00519467
-2.82123e-10
0.00519467
-4.49362e-10
0.00519467
-1.51021e-10
0.00519467
-4.52788e-10
0.00519467
-2.02146e-10
0.00519467
-4.50604e-10
0.00519467
-2.61995e-10
0.00519467
-5.49903e-10
0.00519467
-1.93105e-10
0.00519467
1.31142e-10
0.00519467
1.01871e-09
0.00519467
1.91473e-09
0.00519467
3.6572e-09
0.00519467
5.57594e-09
0.00519467
8.85723e-09
0.00519467
1.35282e-08
0.00519467
2.12852e-08
0.00519467
3.26833e-08
0.00519467
5.01491e-08
0.00519466
7.60217e-08
0.00519466
1.13243e-07
0.00519466
1.67184e-07
0.00519466
2.42859e-07
0.00519465
3.63304e-07
0.00519463
5.31613e-07
0.00519458
8.94782e-07
0.00519448
1.50354e-06
0.00519427
4.1422e-06
0.00519402
1.11083e-05
0.00519346
3.94464e-05
7.88376e-05
0.005143
0.00100098
0.00518463
0.000529775
0.005191
0.000143264
0.00519196
7.2411e-06
0.00519167
-7.74184e-06
0.00519222
5.53222e-06
0.00519263
9.74088e-06
0.00519313
1.16698e-05
0.00519352
1.03158e-05
0.00519385
9.05701e-06
0.0051941
7.49569e-06
0.00519429
6.17142e-06
0.00519443
4.94434e-06
0.00519454
3.89433e-06
0.00519461
3.00057e-06
0.00519466
2.27714e-06
0.0051947
1.68065e-06
0.00519472
1.21808e-06
0.00519474
8.7415e-07
0.00519475
6.16403e-07
0.00519475
4.23206e-07
0.00519476
2.86342e-07
0.00519476
1.91452e-07
0.00519476
1.29451e-07
0.00519476
8.60339e-08
0.00519476
5.68831e-08
0.00519476
3.69798e-08
0.00519476
2.38218e-08
0.00519476
1.59596e-08
0.00519476
1.16808e-08
0.00519476
8.11696e-09
0.00519476
6.51703e-09
0.00519476
4.66684e-09
0.00519476
3.0007e-09
0.00519476
1.41632e-09
0.00519476
2.57047e-10
0.00519476
-3.00664e-10
0.00519476
6.62046e-11
0.00519476
3.37943e-10
0.00519476
1.03716e-09
0.00519476
7.60132e-10
0.00519476
1.10138e-09
0.00519476
4.72649e-10
0.00519476
7.80979e-10
0.00519476
-9.38793e-11
0.00519476
-8.75532e-10
0.00519476
-1.87569e-09
0.00519476
-1.9441e-09
0.00519476
-2.30359e-09
0.00519476
-1.81848e-09
0.00519476
-1.79838e-09
0.00519476
-1.15385e-09
0.00519476
-1.00007e-09
0.00519476
-3.03411e-10
0.00519476
-7.58668e-10
0.00519476
-3.95835e-10
0.00519476
-7.92901e-10
0.00519476
-1.80144e-10
0.00519476
2.30169e-10
0.00519476
1.12455e-09
0.00519476
1.46712e-09
0.00519476
1.80449e-09
0.00519476
1.41148e-09
0.00519476
1.43788e-09
0.00519476
5.644e-10
0.00519476
2.39835e-10
0.00519476
-3.36313e-10
0.00519476
-2.33095e-10
0.00519476
-6.12535e-10
0.00519476
-2.90299e-10
0.00519476
-4.57165e-10
0.00519476
-1.72889e-10
0.00519476
-4.57912e-10
0.00519476
-2.25062e-10
0.00519476
-4.81819e-10
0.00519476
-3.13628e-10
0.00519476
-5.61591e-10
0.00519476
-2.20932e-10
0.00519476
1.29327e-10
0.00519476
1.0232e-09
0.00519476
1.90208e-09
0.00519476
3.6324e-09
0.00519476
5.54697e-09
0.00519476
8.78088e-09
0.00519476
1.33868e-08
0.00519476
2.10137e-08
0.00519476
3.22383e-08
0.00519476
4.93806e-08
0.00519476
7.47412e-08
0.00519476
1.11318e-07
0.00519476
1.64613e-07
0.00519477
2.40079e-07
0.00519477
3.62596e-07
0.00519476
5.37824e-07
0.00519474
9.20298e-07
0.00519468
1.5551e-06
0.00519461
4.21873e-06
0.00519467
1.10504e-05
0.0051952
3.89099e-05
7.73324e-05
0.00513304
0.000867938
0.00518032
0.000482492
0.00518951
0.000134077
0.00519045
6.29894e-06
0.00519004
-7.33214e-06
0.00519064
4.92782e-06
0.00519126
9.12469e-06
0.00519199
1.09361e-05
0.0051926
9.71286e-06
0.00519311
8.53768e-06
0.00519353
7.08409e-06
0.00519385
5.84245e-06
0.00519411
4.68985e-06
0.0051943
3.7001e-06
0.00519445
2.85616e-06
0.00519455
2.17157e-06
0.00519463
1.60516e-06
0.00519468
1.16477e-06
0.00519472
8.375e-07
0.00519474
5.91823e-07
0.00519476
4.06727e-07
0.00519477
2.75366e-07
0.00519478
1.84543e-07
0.00519478
1.25176e-07
0.00519479
8.34295e-08
0.00519479
5.52589e-08
0.00519479
3.6146e-08
0.00519479
2.35424e-08
0.00519479
1.58482e-08
0.00519479
1.16732e-08
0.00519479
8.14174e-09
0.00519479
6.47447e-09
0.00519479
4.62249e-09
0.00519479
2.85801e-09
0.00519479
1.30046e-09
0.00519479
1.74267e-10
0.00519479
-3.08964e-10
0.00519479
1.99034e-11
0.00519479
2.58864e-10
0.00519479
1.00436e-09
0.00519479
7.93066e-10
0.00519479
1.13343e-09
0.00519479
4.46552e-10
0.00519479
6.85283e-10
0.00519479
-4.96937e-11
0.00519479
-7.9315e-10
0.00519479
-1.81443e-09
0.00519479
-1.93404e-09
0.00519479
-2.28234e-09
0.00519479
-1.8348e-09
0.00519479
-1.86953e-09
0.00519479
-1.26981e-09
0.00519479
-1.10238e-09
0.00519479
-4.15698e-10
0.00519479
-8.82529e-10
0.00519479
-5.34776e-10
0.00519479
-8.66684e-10
0.00519479
-2.83625e-10
0.00519479
1.83139e-10
0.00519479
1.16138e-09
0.00519479
1.56227e-09
0.00519479
1.86051e-09
0.00519479
1.45071e-09
0.00519479
1.48975e-09
0.00519479
6.58562e-10
0.00519479
2.74886e-10
0.00519479
-3.19117e-10
0.00519479
-1.88256e-10
0.00519479
-5.49682e-10
0.00519479
-2.89182e-10
0.00519479
-4.66962e-10
0.00519479
-1.98859e-10
0.00519479
-4.67276e-10
0.00519479
-2.4628e-10
0.00519479
-5.08953e-10
0.00519479
-3.71484e-10
0.00519479
-5.68654e-10
0.00519479
-2.38287e-10
0.00519479
1.15182e-10
0.00519479
9.97638e-10
0.00519479
1.83125e-09
0.00519479
3.5081e-09
0.00519479
5.37469e-09
0.00519479
8.47829e-09
0.00519479
1.29029e-08
0.00519479
2.02231e-08
0.00519479
3.1002e-08
0.00519479
4.74233e-08
0.00519479
7.16656e-08
0.0051948
1.0671e-07
0.00519481
1.58052e-07
0.00519482
2.3134e-07
0.00519483
3.52326e-07
0.00519483
5.28633e-07
0.00519484
9.16533e-07
0.00519484
1.55476e-06
0.0051949
4.16235e-06
0.00519525
1.06926e-05
0.00519682
3.73461e-05
7.3847e-05
0.00512474
0.000743199
0.00517659
0.00043064
0.00518822
0.000122447
0.00518912
5.39379e-06
0.00518858
-6.79399e-06
0.00518922
4.29248e-06
0.00519001
8.33608e-06
0.00519094
9.99919e-06
0.00519174
8.91762e-06
0.00519243
7.84708e-06
0.00519298
6.52561e-06
0.00519344
5.38994e-06
0.00519379
4.33393e-06
0.00519407
3.4241e-06
0.00519428
2.6474e-06
0.00519443
2.01626e-06
0.00519455
1.49205e-06
0.00519463
1.08367e-06
0.00519468
7.80682e-07
0.00519472
5.52838e-07
0.00519475
3.80244e-07
0.00519477
2.5748e-07
0.00519478
1.72901e-07
0.00519479
1.1776e-07
0.00519479
7.8792e-08
0.0051948
5.23262e-08
0.0051948
3.44473e-08
0.0051948
2.27053e-08
0.0051948
1.53261e-08
0.0051948
1.13396e-08
0.0051948
7.94687e-09
0.0051948
6.29679e-09
0.0051948
4.48309e-09
0.0051948
2.65745e-09
0.0051948
1.13938e-09
0.0051948
7.57042e-11
0.0051948
-3.17055e-10
0.0051948
-4.20569e-13
0.0051948
1.85038e-10
0.0051948
9.51875e-10
0.0051948
7.96346e-10
0.0051948
1.15385e-09
0.0051948
4.25779e-10
0.0051948
5.8031e-10
0.0051948
-2.5768e-11
0.0051948
-6.92692e-10
0.0051948
-1.70547e-09
0.0051948
-1.89148e-09
0.0051948
-2.25367e-09
0.0051948
-1.84391e-09
0.0051948
-1.92839e-09
0.0051948
-1.38831e-09
0.0051948
-1.21466e-09
0.0051948
-5.30959e-10
0.0051948
-1.00545e-09
0.0051948
-6.83913e-10
0.0051948
-9.34445e-10
0.0051948
-3.58429e-10
0.0051948
1.43214e-10
0.0051948
1.17961e-09
0.0051948
1.6427e-09
0.0051948
1.9132e-09
0.0051948
1.47143e-09
0.0051948
1.51242e-09
0.0051948
7.43586e-10
0.0051948
3.25195e-10
0.0051948
-2.92773e-10
0.0051948
-1.4086e-10
0.0051948
-4.72618e-10
0.0051948
-2.78093e-10
0.0051948
-4.76964e-10
0.0051948
-2.27159e-10
0.0051948
-4.81473e-10
0.0051948
-2.6704e-10
0.0051948
-5.2857e-10
0.0051948
-4.28015e-10
0.0051948
-5.71809e-10
0.0051948
-2.39967e-10
0.0051948
9.61194e-11
0.0051948
9.48152e-10
0.0051948
1.71015e-09