/*--------------------------------*- C++ -*----------------------------------*\
| =========                 |                                                 |
| \\      /  F ield         | OpenFOAM: The Open Source CFD Toolbox           |
|  \\    /   O peration     | Version:  v1906                                 |
|   \\  /    A nd           | Web:      www.OpenFOAM.com                      |
|    \\/     M anipulation  |                                                 |
\*---------------------------------------------------------------------------*/
FoamFile
{
    version     2.0;
    format      ascii;
    class       surfaceScalarField;
    location    "0.5";
    object      phiB;
}
// * * * * * * * * * * * * * * * * * * * * * * * * * * * * * * * * * * * * * //

dimensions      [1 2 -2 0 0 -1 0];
oriented        oriented;


internalField   nonuniform List<scalar> 
7860
(
0.00179048
0.399583
0.00213884
0.399652
0.00234745
0.399791
0.00250882
0.399839
0.00260782
0.399901
0.00265607
0.399952
0.00266946
0.399987
0.00266162
0.400008
0.00264272
0.400019
0.00261923
0.400023
0.00259516
0.400024
0.00257269
0.400022
0.00255293
0.40002
0.00253623
0.400017
0.00252255
0.400014
0.0025116
0.400011
0.00250301
0.400009
0.00249637
0.400007
0.0024913
0.400005
0.00248746
0.400004
0.00248458
0.400003
0.00248244
0.400002
0.00248085
0.400002
0.00247967
0.400001
0.00247881
0.400001
0.00247818
0.400001
0.00247771
0.4
0.00247737
0.4
0.00247712
0.4
0.00247694
0.4
0.00247681
0.4
0.00247671
0.4
0.00247664
0.4
0.00247659
0.4
0.00247655
0.4
0.00247652
0.4
0.0024765
0.4
0.00247649
0.4
0.00247648
0.4
0.00247647
0.4
0.00247646
0.4
0.00247646
0.4
0.00247645
0.4
0.00247645
0.4
0.00247645
0.4
0.00247645
0.4
0.00247645
0.4
0.00247645
0.4
0.00247645
0.4
0.00247645
0.4
0.00247645
0.4
0.00247645
0.4
0.00247645
0.4
0.00247645
0.4
0.00247645
0.4
0.00247645
0.4
0.00247645
0.4
0.00247645
0.4
0.00247645
0.4
0.00247645
0.4
0.00247645
0.4
0.00247645
0.4
0.00247645
0.4
0.00247645
0.4
0.00247645
0.4
0.00247645
0.4
0.00247645
0.4
0.00247645
0.4
0.00247645
0.4
0.00247645
0.4
0.00247645
0.4
0.00247644
0.4
0.00247644
0.4
0.00247644
0.4
0.00247644
0.4
0.00247644
0.4
0.00247644
0.4
0.00247644
0.4
0.00247643
0.4
0.00247643
0.4
0.00247642
0.4
0.00247641
0.4
0.0024764
0.4
0.00247639
0.4
0.00247637
0.4
0.00247634
0.4
0.0024763
0.4
0.00247626
0.4
0.00247622
0.4
0.00247617
0.4
0.00247614
0.4
0.00247616
0.4
0.00247628
0.4
0.00247661
0.4
0.00247724
0.399999
0.0024782
0.399999
0.00247894
0.399999
0.00247802
0.400001
0.00247161
0.400006
0.400017
0.00349084
0.398689
0.00406023
0.399082
0.00440588
0.399446
0.00464922
0.399595
0.00479628
0.399754
0.00487058
0.399877
0.00489465
0.399963
0.00488823
0.400014
0.00486547
0.400042
0.00483559
0.400053
0.00480425
0.400055
0.00477463
0.400052
0.00474835
0.400046
0.00472602
0.400039
0.00470764
0.400032
0.00469287
0.400026
0.00468124
0.40002
0.00467223
0.400016
0.00466532
0.400012
0.0046601
0.400009
0.00465617
0.400007
0.00465324
0.400005
0.00465106
0.400004
0.00464946
0.400003
0.00464827
0.400002
0.0046474
0.400002
0.00464676
0.400001
0.0046463
0.400001
0.00464595
0.400001
0.0046457
0.4
0.00464552
0.4
0.00464539
0.4
0.00464529
0.4
0.00464522
0.4
0.00464517
0.4
0.00464513
0.4
0.0046451
0.4
0.00464508
0.4
0.00464507
0.4
0.00464506
0.4
0.00464505
0.4
0.00464504
0.4
0.00464504
0.4
0.00464504
0.4
0.00464503
0.4
0.00464503
0.4
0.00464503
0.4
0.00464503
0.4
0.00464503
0.4
0.00464503
0.4
0.00464503
0.4
0.00464503
0.4
0.00464503
0.4
0.00464503
0.4
0.00464503
0.4
0.00464503
0.4
0.00464503
0.4
0.00464503
0.4
0.00464503
0.4
0.00464503
0.4
0.00464503
0.4
0.00464503
0.4
0.00464503
0.4
0.00464503
0.4
0.00464503
0.4
0.00464503
0.4
0.00464503
0.4
0.00464503
0.4
0.00464503
0.4
0.00464503
0.4
0.00464503
0.4
0.00464503
0.4
0.00464503
0.4
0.00464502
0.4
0.00464502
0.4
0.00464502
0.4
0.00464502
0.4
0.00464502
0.4
0.00464501
0.4
0.004645
0.4
0.004645
0.4
0.00464498
0.4
0.00464497
0.4
0.00464495
0.4
0.00464492
0.4
0.00464488
0.4
0.00464484
0.4
0.00464479
0.4
0.00464473
0.4
0.00464469
0.4
0.00464467
0.4
0.00464475
0.4
0.004645
0.4
0.00464557
0.399999
0.00464663
0.399998
0.00464825
0.399997
0.00464971
0.399998
0.00464899
0.400002
0.00463998
0.400015
0.400038
0.0041059
0.397576
0.00476141
0.398427
0.00517116
0.399036
0.00543921
0.399327
0.00559823
0.399595
0.00568074
0.399795
0.00571113
0.399932
0.00570996
0.400015
0.00569139
0.40006
0.00566483
0.40008
0.00563605
0.400084
0.00560839
0.40008
0.00558357
0.400071
0.0055623
0.40006
0.00554468
0.40005
0.00553046
0.40004
0.00551921
0.400031
0.00551046
0.400024
0.00550374
0.400019
0.00549864
0.400014
0.00549479
0.400011
0.00549192
0.400008
0.00548979
0.400006
0.00548821
0.400004
0.00548704
0.400003
0.00548619
0.400002
0.00548556
0.400002
0.0054851
0.400001
0.00548476
0.400001
0.00548451
0.400001
0.00548433
0.4
0.0054842
0.4
0.00548411
0.4
0.00548404
0.4
0.00548399
0.4
0.00548395
0.4
0.00548392
0.4
0.0054839
0.4
0.00548389
0.4
0.00548387
0.4
0.00548387
0.4
0.00548386
0.4
0.00548386
0.4
0.00548385
0.4
0.00548385
0.4
0.00548385
0.4
0.00548385
0.4
0.00548385
0.4
0.00548385
0.4
0.00548385
0.4
0.00548385
0.4
0.00548384
0.4
0.00548385
0.4
0.00548384
0.4
0.00548384
0.4
0.00548384
0.4
0.00548384
0.4
0.00548384
0.4
0.00548384
0.4
0.00548384
0.4
0.00548384
0.4
0.00548384
0.4
0.00548384
0.4
0.00548384
0.4
0.00548384
0.4
0.00548384
0.4
0.00548384
0.4
0.00548384
0.4
0.00548385
0.4
0.00548384
0.4
0.00548384
0.4
0.00548384
0.4
0.00548384
0.4
0.00548384
0.4
0.00548384
0.4
0.00548384
0.4
0.00548384
0.4
0.00548383
0.4
0.00548383
0.4
0.00548382
0.4
0.00548381
0.4
0.0054838
0.4
0.00548379
0.4
0.00548377
0.4
0.00548374
0.4
0.00548371
0.4
0.00548367
0.4
0.00548363
0.4
0.00548358
0.4
0.00548356
0.4
0.00548359
0.4
0.00548372
0.4
0.00548407
0.399999
0.0054848
0.399998
0.00548611
0.399997
0.00548813
0.399995
0.00549037
0.399996
0.00549111
0.400001
0.00548477
0.400022
0.400052
0.00412913
0.396381
0.00484773
0.397708
0.00530883
0.398575
0.00559701
0.399039
0.00576598
0.399426
0.00585512
0.399706
0.00589113
0.399896
0.00589492
0.400012
0.00588057
0.400075
0.0058575
0.400103
0.0058315
0.40011
0.00580601
0.400105
0.00578285
0.400094
0.00576283
0.40008
0.00574613
0.400066
0.00573258
0.400053
0.00572181
0.400042
0.0057134
0.400033
0.00570692
0.400025
0.00570198
0.400019
0.00569825
0.400014
0.00569546
0.400011
0.00569338
0.400008
0.00569184
0.400006
0.00569071
0.400004
0.00568987
0.400003
0.00568925
0.400002
0.0056888
0.400002
0.00568847
0.400001
0.00568823
0.400001
0.00568806
0.400001
0.00568793
0.4
0.00568783
0.4
0.00568776
0.4
0.00568771
0.4
0.00568768
0.4
0.00568765
0.4
0.00568763
0.4
0.00568762
0.4
0.00568761
0.4
0.0056876
0.4
0.00568759
0.4
0.00568759
0.4
0.00568759
0.4
0.00568758
0.4
0.00568758
0.4
0.00568758
0.4
0.00568758
0.4
0.00568758
0.4
0.00568758
0.4
0.00568758
0.4
0.00568758
0.4
0.00568758
0.4
0.00568758
0.4
0.00568758
0.4
0.00568758
0.4
0.00568758
0.4
0.00568758
0.4
0.00568758
0.4
0.00568758
0.4
0.00568758
0.4
0.00568758
0.4
0.00568758
0.4
0.00568758
0.4
0.00568758
0.4
0.00568758
0.4
0.00568758
0.4
0.00568758
0.4
0.00568758
0.4
0.00568758
0.4
0.00568758
0.4
0.00568758
0.4
0.00568758
0.4
0.00568757
0.4
0.00568757
0.4
0.00568757
0.4
0.00568757
0.4
0.00568756
0.4
0.00568756
0.4
0.00568755
0.4
0.00568755
0.4
0.00568753
0.4
0.00568752
0.4
0.0056875
0.4
0.00568748
0.4
0.00568745
0.4
0.00568741
0.4
0.00568738
0.4
0.00568735
0.4
0.00568736
0.4
0.00568742
0.4
0.00568762
0.4
0.00568807
0.399999
0.00568895
0.399997
0.00569051
0.399995
0.00569298
0.399993
0.0056962
0.399992
0.0056991
0.399998
0.00569797
0.400023
0.400058
0.00390471
0.395206
0.00465887
0.396954
0.00515398
0.39808
0.00545668
0.398736
0.00563319
0.399249
0.00572743
0.399612
0.00576815
0.399855
0.00577636
0.400003
0.00576597
0.400085
0.00574627
0.400123
0.00572305
0.400133
0.00569977
0.400129
0.00567834
0.400115
0.00565964
0.400099
0.00564394
0.400082
0.00563112
0.400066
0.00562089
0.400052
0.00561286
0.400041
0.00560666
0.400031
0.00560192
0.400024
0.00559833
0.400018
0.00559564
0.400013
0.00559363
0.40001
0.00559214
0.400007
0.00559104
0.400005
0.00559023
0.400004
0.00558963
0.400003
0.00558919
0.400002
0.00558887
0.400002
0.00558863
0.400001
0.00558846
0.400001
0.00558834
0.400001
0.00558825
0.4
0.00558818
0.4
0.00558813
0.4
0.00558809
0.4
0.00558807
0.4
0.00558805
0.4
0.00558804
0.4
0.00558802
0.4
0.00558802
0.4
0.00558801
0.4
0.00558801
0.4
0.00558801
0.4
0.005588
0.4
0.005588
0.4
0.005588
0.4
0.005588
0.4
0.005588
0.4
0.005588
0.4
0.005588
0.4
0.005588
0.4
0.005588
0.4
0.005588
0.4
0.005588
0.4
0.005588
0.4
0.005588
0.4
0.005588
0.4
0.005588
0.4
0.005588
0.4
0.005588
0.4
0.005588
0.4
0.005588
0.4
0.005588
0.4
0.005588
0.4
0.005588
0.4
0.005588
0.4
0.005588
0.4
0.005588
0.4
0.005588
0.4
0.005588
0.4
0.005588
0.4
0.005588
0.4
0.00558799
0.4
0.00558799
0.4
0.00558799
0.4
0.00558799
0.4
0.00558798
0.4
0.00558798
0.4
0.00558797
0.4
0.00558797
0.4
0.00558796
0.4
0.00558794
0.4
0.00558792
0.4
0.0055879
0.4
0.00558788
0.4
0.00558785
0.4
0.00558782
0.4
0.00558781
0.4
0.00558784
0.4
0.00558794
0.4
0.0055882
0.399999
0.00558874
0.399998
0.00558976
0.399996
0.00559157
0.399994
0.0055945
0.39999
0.0055988
0.399988
0.00560424
0.399993
0.00560932
0.400018
0.400054
0.00359055
0.394107
0.00435386
0.396191
0.0048666
0.397567
0.00517792
0.398425
0.00535927
0.399068
0.00545703
0.399514
0.00550147
0.399811
0.00551344
0.399991
0.00550661
0.400092
0.00549006
0.400139
0.00546949
0.400154
0.00544839
0.40015
0.00542869
0.400135
0.00541133
0.400116
0.00539665
0.400097
0.00538461
0.400078
0.00537495
0.400062
0.00536734
0.400048
0.00536144
0.400037
0.00535692
0.400028
0.00535349
0.400021
0.00535091
0.400016
0.00534899
0.400012
0.00534755
0.400009
0.00534649
0.400007
0.00534571
0.400005
0.00534513
0.400004
0.00534471
0.400003
0.0053444
0.400002
0.00534417
0.400001
0.00534401
0.400001
0.00534389
0.400001
0.0053438
0.400001
0.00534373
0.4
0.00534369
0.4
0.00534365
0.4
0.00534363
0.4
0.00534361
0.4
0.00534359
0.4
0.00534358
0.4
0.00534358
0.4
0.00534357
0.4
0.00534357
0.4
0.00534357
0.4
0.00534356
0.4
0.00534356
0.4
0.00534356
0.4
0.00534356
0.4
0.00534356
0.4
0.00534356
0.4
0.00534356
0.4
0.00534356
0.4
0.00534356
0.4
0.00534356
0.4
0.00534356
0.4
0.00534356
0.4
0.00534356
0.4
0.00534356
0.4
0.00534356
0.4
0.00534356
0.4
0.00534356
0.4
0.00534356
0.4
0.00534356
0.4
0.00534356
0.4
0.00534356
0.4
0.00534356
0.4
0.00534356
0.4
0.00534356
0.4
0.00534356
0.4
0.00534356
0.4
0.00534356
0.4
0.00534356
0.4
0.00534356
0.4
0.00534356
0.4
0.00534355
0.4
0.00534355
0.4
0.00534355
0.4
0.00534355
0.4
0.00534354
0.4
0.00534354
0.4
0.00534353
0.4
0.00534352
0.4
0.00534351
0.4
0.00534349
0.4
0.00534347
0.4
0.00534345
0.4
0.00534343
0.4
0.00534341
0.4
0.00534341
0.4
0.00534346
0.4
0.0053436
0.4
0.00534391
0.399999
0.00534453
0.399998
0.00534568
0.399995
0.00534771
0.399992
0.0053511
0.399987
0.00535648
0.399983
0.00536449
0.399985
0.00537574
0.400007
0.40004
0.00325637
0.393111
0.00400667
0.39544
0.00452291
0.397051
0.00483703
0.398111
0.00502037
0.398885
0.00512005
0.399414
0.00516714
0.399764
0.00518217
0.399976
0.00517844
0.400096
0.00516475
0.400153
0.00514668
0.400172
0.00512766
0.400169
0.00510965
0.400153
0.00509364
0.400132
0.00508001
0.40011
0.00506876
0.40009
0.00505969
0.400071
0.00505253
0.400056
0.00504696
0.400043
0.00504267
0.400033
0.00503942
0.400025
0.00503696
0.400018
0.00503513
0.400014
0.00503376
0.40001
0.00503275
0.400008
0.005032
0.400006
0.00503145
0.400004
0.00503104
0.400003
0.00503074
0.400002
0.00503053
0.400002
0.00503037
0.400001
0.00503025
0.400001
0.00503017
0.400001
0.0050301
0.4
0.00503006
0.4
0.00503002
0.4
0.00503
0.4
0.00502998
0.4
0.00502997
0.4
0.00502996
0.4
0.00502995
0.4
0.00502995
0.4
0.00502995
0.4
0.00502994
0.4
0.00502994
0.4
0.00502994
0.4
0.00502994
0.4
0.00502994
0.4
0.00502994
0.4
0.00502994
0.4
0.00502994
0.4
0.00502994
0.4
0.00502994
0.4
0.00502994
0.4
0.00502994
0.4
0.00502993
0.4
0.00502993
0.4
0.00502993
0.4
0.00502993
0.4
0.00502993
0.4
0.00502993
0.4
0.00502993
0.4
0.00502993
0.4
0.00502993
0.4
0.00502993
0.4
0.00502993
0.4
0.00502993
0.4
0.00502993
0.4
0.00502994
0.4
0.00502993
0.4
0.00502993
0.4
0.00502993
0.4
0.00502993
0.4
0.00502993
0.4
0.00502993
0.4
0.00502993
0.4
0.00502993
0.4
0.00502992
0.4
0.00502992
0.4
0.00502991
0.4
0.00502991
0.4
0.0050299
0.4
0.00502989
0.4
0.00502987
0.4
0.00502985
0.4
0.00502983
0.4
0.00502982
0.4
0.00502981
0.4
0.00502982
0.4
0.00502989
0.4
0.00503006
0.4
0.00503041
0.399999
0.0050311
0.399997
0.00503236
0.399994
0.00503459
0.399989
0.00503839
0.399983
0.00504478
0.399976
0.00505517
0.399974
0.0050719
0.39999
0.400018
0.00293082
0.392226
0.00365093
0.39472
0.00415893
0.396543
0.00447039
0.397799
0.00465285
0.398702
0.0047528
0.399314
0.00480149
0.399715
0.00481884
0.399959
0.00481773
0.400097
0.00480659
0.400164
0.00479083
0.400188
0.0047738
0.400186
0.00475744
0.40017
0.00474276
0.400147
0.00473017
0.400123
0.00471973
0.4001
0.00471128
0.40008
0.00470458
0.400062
0.00469935
0.400048
0.00469532
0.400037
0.00469225
0.400028
0.00468994
0.400021
0.0046882
0.400015
0.0046869
0.400011
0.00468594
0.400008
0.00468523
0.400006
0.00468471
0.400005
0.00468432
0.400003
0.00468404
0.400002
0.00468383
0.400002
0.00468368
0.400001
0.00468357
0.400001
0.00468349
0.400001
0.00468343
0.400001
0.00468339
0.4
0.00468336
0.4
0.00468333
0.4
0.00468332
0.4
0.0046833
0.4
0.00468329
0.4
0.00468329
0.4
0.00468328
0.4
0.00468328
0.4
0.00468328
0.4
0.00468328
0.4
0.00468327
0.4
0.00468327
0.4
0.00468327
0.4
0.00468327
0.4
0.00468327
0.4
0.00468327
0.4
0.00468327
0.4
0.00468327
0.4
0.00468327
0.4
0.00468327
0.4
0.00468327
0.4
0.00468327
0.4
0.00468327
0.4
0.00468327
0.4
0.00468327
0.4
0.00468327
0.4
0.00468327
0.4
0.00468327
0.4
0.00468327
0.4
0.00468327
0.4
0.00468327
0.4
0.00468327
0.4
0.00468327
0.4
0.00468327
0.4
0.00468327
0.4
0.00468327
0.4
0.00468327
0.4
0.00468327
0.4
0.00468327
0.4
0.00468327
0.4
0.00468326
0.4
0.00468326
0.4
0.00468326
0.4
0.00468326
0.4
0.00468325
0.4
0.00468324
0.4
0.00468323
0.4
0.00468322
0.4
0.00468321
0.4
0.0046832
0.4
0.00468318
0.4
0.00468317
0.4
0.00468317
0.4
0.00468319
0.4
0.00468327
0.4
0.00468346
0.399999
0.00468385
0.399998
0.00468459
0.399996
0.00468594
0.399993
0.00468832
0.399987
0.00469247
0.399979
0.00469973
0.399969
0.00471214
0.399962
0.00473335
0.399969
0.399988
0.00262388
0.391449
0.00330125
0.394043
0.00379145
0.396053
0.0040952
0.397496
0.00427398
0.398524
0.0043726
0.399216
0.00442181
0.399666
0.00444078
0.39994
0.0044418
0.400096
0.00443291
0.400173
0.00441926
0.400201
0.00440411
0.400201
0.00438934
0.400184
0.00437596
0.40016
0.00436441
0.400135
0.00435479
0.40011
0.00434698
0.400087
0.00434076
0.400069
0.00433589
0.400053
0.00433214
0.40004
0.00432927
0.400031
0.00432709
0.400023
0.00432546
0.400017
0.00432425
0.400013
0.00432334
0.400009
0.00432267
0.400007
0.00432218
0.400005
0.00432182
0.400004
0.00432155
0.400003
0.00432136
0.400002
0.00432121
0.400001
0.00432111
0.400001
0.00432103
0.400001
0.00432098
0.400001
0.00432094
0.4
0.00432091
0.4
0.00432088
0.4
0.00432087
0.4
0.00432086
0.4
0.00432085
0.4
0.00432084
0.4
0.00432084
0.4
0.00432084
0.4
0.00432083
0.4
0.00432083
0.4
0.00432083
0.4
0.00432083
0.4
0.00432083
0.4
0.00432083
0.4
0.00432083
0.4
0.00432083
0.4
0.00432083
0.4
0.00432083
0.4
0.00432083
0.4
0.00432083
0.4
0.00432083
0.4
0.00432083
0.4
0.00432083
0.4
0.00432083
0.4
0.00432083
0.4
0.00432083
0.4
0.00432082
0.4
0.00432083
0.4
0.00432082
0.4
0.00432083
0.4
0.00432083
0.4
0.00432083
0.4
0.00432083
0.4
0.00432083
0.4
0.00432083
0.4
0.00432083
0.4
0.00432082
0.4
0.00432082
0.4
0.00432082
0.4
0.00432082
0.4
0.00432082
0.4
0.00432082
0.4
0.00432082
0.4
0.00432081
0.4
0.00432081
0.4
0.0043208
0.4
0.00432079
0.4
0.00432078
0.4
0.00432077
0.4
0.00432076
0.4
0.00432074
0.4
0.00432074
0.4
0.00432074
0.4
0.00432078
0.4
0.00432087
0.4
0.00432108
0.399999
0.00432149
0.399998
0.00432227
0.399995
0.00432367
0.399991
0.00432617
0.399985
0.00433057
0.399974
0.00433851
0.399961
0.00435248
0.399948
0.00437705
0.399944
0.399954
0.00233728
0.390775
0.00296333
0.393417
0.00342799
0.395588
0.00371947
0.397204
0.0038919
0.398351
0.00398764
0.39912
0.00403635
0.399617
0.00405623
0.39992
0.00405891
0.400093
0.00405196
0.40018
0.00404024
0.400213
0.00402685
0.400214
0.00401361
0.400198
0.00400151
0.400173
0.00399101
0.400145
0.00398222
0.400118
0.00397505
0.400095
0.00396932
0.400074
0.00396483
0.400057
0.00396136
0.400044
0.0039587
0.400033
0.00395668
0.400025
0.00395517
0.400019
0.00395404
0.400014
0.00395319
0.40001
0.00395257
0.400008
0.00395211
0.400006
0.00395177
0.400004
0.00395152
0.400003
0.00395134
0.400002
0.00395121
0.400002
0.00395111
0.400001
0.00395104
0.400001
0.00395099
0.400001
0.00395095
0.4
0.00395092
0.4
0.0039509
0.4
0.00395088
0.4
0.00395087
0.4
0.00395087
0.4
0.00395086
0.4
0.00395086
0.4
0.00395085
0.4
0.00395085
0.4
0.00395085
0.4
0.00395085
0.4
0.00395085
0.4
0.00395085
0.4
0.00395085
0.4
0.00395085
0.4
0.00395085
0.4
0.00395085
0.4
0.00395085
0.4
0.00395085
0.4
0.00395085
0.4
0.00395085
0.4
0.00395085
0.4
0.00395084
0.4
0.00395084
0.4
0.00395084
0.4
0.00395084
0.4
0.00395084
0.4
0.00395084
0.4
0.00395084
0.4
0.00395084
0.4
0.00395084
0.4
0.00395084
0.4
0.00395084
0.4
0.00395084
0.4
0.00395084
0.4
0.00395084
0.4
0.00395084
0.4
0.00395084
0.4
0.00395084
0.4
0.00395084
0.4
0.00395084
0.4
0.00395084
0.4
0.00395083
0.4
0.00395083
0.4
0.00395083
0.4
0.00395082
0.4
0.00395081
0.4
0.0039508
0.4
0.00395079
0.4
0.00395078
0.4
0.00395077
0.4
0.00395077
0.4
0.00395078
0.4
0.00395082
0.4
0.00395092
0.4
0.00395114
0.399999
0.00395157
0.399997
0.00395236
0.399995
0.00395379
0.39999
0.00395635
0.399982
0.00396091
0.39997
0.00396928
0.399953
0.00398431
0.399933
0.00401109
0.399917
0.399915
0.00206944
0.390193
0.00263869
0.392848
0.00307163
0.395155
0.00334675
0.396929
0.00351038
0.398187
0.00360175
0.399028
0.00364897
0.39957
0.00366911
0.3999
0.00367301
0.400089
0.00366769
0.400185
0.00365771
0.400223
0.00364597
0.400226
0.00363421
0.400209
0.00362336
0.400183
0.0036139
0.400154
0.00360594
0.400126
0.00359942
0.400101
0.00359421
0.400079
0.00359011
0.400062
0.00358693
0.400047
0.00358449
0.400036
0.00358264
0.400027
0.00358125
0.40002
0.00358021
0.400015
0.00357943
0.400011
0.00357886
0.400008
0.00357843
0.400006
0.00357812
0.400004
0.00357789
0.400003
0.00357772
0.400002
0.0035776
0.400002
0.00357751
0.400001
0.00357744
0.400001
0.00357739
0.400001
0.00357736
0.4
0.00357733
0.4
0.00357731
0.4
0.0035773
0.4
0.00357729
0.4
0.00357728
0.4
0.00357728
0.4
0.00357727
0.4
0.00357727
0.4
0.00357727
0.4
0.00357727
0.4
0.00357727
0.4
0.00357727
0.4
0.00357727
0.4
0.00357727
0.4
0.00357727
0.4
0.00357727
0.4
0.00357727
0.4
0.00357727
0.4
0.00357727
0.4
0.00357727
0.4
0.00357726
0.4
0.00357726
0.4
0.00357726
0.4
0.00357726
0.4
0.00357726
0.4
0.00357726
0.4
0.00357726
0.4
0.00357726
0.4
0.00357726
0.4
0.00357726
0.4
0.00357726
0.4
0.00357726
0.4
0.00357726
0.4
0.00357726
0.4
0.00357726
0.4
0.00357726
0.4
0.00357726
0.4
0.00357726
0.4
0.00357726
0.4
0.00357726
0.4
0.00357726
0.4
0.00357726
0.4
0.00357725
0.4
0.00357725
0.4
0.00357725
0.4
0.00357724
0.4
0.00357724
0.4
0.00357723
0.4
0.00357722
0.4
0.00357721
0.4
0.0035772
0.4
0.0035772
0.4
0.00357721
0.4
0.00357726
0.4
0.00357736
0.4
0.00357759
0.399999
0.00357802
0.399997
0.00357881
0.399994
0.00358023
0.399988
0.00358279
0.399979
0.0035874
0.399965
0.00359596
0.399944
0.00361152
0.399917
0.00363939
0.399889
0.399875
0.00181764
0.389695
0.00232695
0.392338
0.00272331
0.394759
0.00297846
0.396674
0.00313102
0.398035
0.00321664
0.398943
0.00326147
0.399525
0.00328124
0.39988
0.00328594
0.400084
0.00328198
0.400189
0.00327357
0.400232
0.00326338
0.400236
0.00325303
0.40022
0.00324342
0.400193
0.00323498
0.400163
0.00322785
0.400134
0.003222
0.400107
0.00321731
0.400084
0.00321361
0.400065
0.00321074
0.40005
0.00320853
0.400038
0.00320685
0.400028
0.00320559
0.400021
0.00320464
0.400016
0.00320394
0.400012
0.00320341
0.400009
0.00320303
0.400006
0.00320274
0.400005
0.00320254
0.400003
0.00320238
0.400003
0.00320227
0.400002
0.00320219
0.400001
0.00320213
0.400001
0.00320208
0.400001
0.00320205
0.400001
0.00320203
0.4
0.00320201
0.4
0.003202
0.4
0.00320199
0.4
0.00320198
0.4
0.00320198
0.4
0.00320197
0.4
0.00320197
0.4
0.00320197
0.4
0.00320197
0.4
0.00320197
0.4
0.00320197
0.4
0.00320197
0.4
0.00320197
0.4
0.00320197
0.4
0.00320197
0.4
0.00320197
0.4
0.00320197
0.4
0.00320197
0.4
0.00320197
0.4
0.00320197
0.4
0.00320197
0.4
0.00320196
0.4
0.00320196
0.4
0.00320196
0.4
0.00320196
0.4
0.00320196
0.4
0.00320196
0.4
0.00320196
0.4
0.00320196
0.4
0.00320196
0.4
0.00320196
0.4
0.00320196
0.4
0.00320196
0.4
0.00320196
0.4
0.00320196
0.4
0.00320196
0.4
0.00320196
0.4
0.00320196
0.4
0.00320196
0.4
0.00320196
0.4
0.00320196
0.4
0.00320196
0.4
0.00320195
0.4
0.00320195
0.4
0.00320194
0.4
0.00320194
0.4
0.00320193
0.4
0.00320192
0.4
0.00320192
0.4
0.00320191
0.4
0.00320191
0.4
0.00320192
0.4
0.00320197
0.4
0.00320208
0.399999
0.0032023
0.399998
0.00320272
0.399997
0.00320349
0.399993
0.00320488
0.399987
0.00320738
0.399977
0.00321191
0.399961
0.00322041
0.399936
0.00323597
0.399902
0.00326388
0.399862
0.399835
0.001579
0.389274
0.00202692
0.39189
0.00238293
0.394403
0.00261497
0.396442
0.00275441
0.397895
0.00283303
0.398864
0.00287463
0.399484
0.00289347
0.399861
0.00289857
0.400079
0.00289573
0.400192
0.00288872
0.400239
0.00287997
0.400245
0.00287098
0.400229
0.00286257
0.400201
0.00285515
0.40017
0.00284887
0.40014
0.00284369
0.400112
0.00283953
0.400088
0.00283624
0.400069
0.00283368
0.400053
0.00283172
0.40004
0.00283022
0.40003
0.00282909
0.400022
0.00282824
0.400017
0.00282761
0.400012
0.00282714
0.400009
0.0028268
0.400007
0.00282654
0.400005
0.00282636
0.400004
0.00282622
0.400003
0.00282612
0.400002
0.00282604
0.400001
0.00282599
0.400001
0.00282595
0.400001
0.00282592
0.400001
0.0028259
0.4
0.00282589
0.4
0.00282587
0.4
0.00282587
0.4
0.00282586
0.4
0.00282586
0.4
0.00282585
0.4
0.00282585
0.4
0.00282585
0.4
0.00282585
0.4
0.00282585
0.4
0.00282585
0.4
0.00282585
0.4
0.00282585
0.4
0.00282585
0.4
0.00282585
0.4
0.00282585
0.4
0.00282585
0.4
0.00282584
0.4
0.00282585
0.4
0.00282584
0.4
0.00282584
0.4
0.00282584
0.4
0.00282584
0.4
0.00282584
0.4
0.00282584
0.4
0.00282584
0.4
0.00282584
0.4
0.00282584
0.4
0.00282584
0.4
0.00282584
0.4
0.00282584
0.4
0.00282584
0.4
0.00282584
0.4
0.00282584
0.4
0.00282584
0.4
0.00282584
0.4
0.00282584
0.4
0.00282584
0.4
0.00282584
0.4
0.00282584
0.4
0.00282584
0.4
0.00282584
0.4
0.00282583
0.4
0.00282583
0.4
0.00282583
0.4
0.00282582
0.4
0.00282581
0.4
0.00282581
0.4
0.0028258
0.4
0.0028258
0.4
0.0028258
0.4
0.00282581
0.4
0.00282586
0.4
0.00282597
0.399999
0.00282618
0.399998
0.00282658
0.399996
0.00282732
0.399992
0.00282863
0.399986
0.00283101
0.399975
0.00283535
0.399956
0.00284353
0.399927
0.00285859
0.399887
0.00288557
0.399835
0.399796
0.00135093
0.388921
0.00173712
0.391504
0.0020499
0.39409
0.00225613
0.396236
0.00238065
0.397771
0.00245114
0.398794
0.00248875
0.399446
0.00250615
0.399844
0.0025113
0.400074
0.00250933
0.400194
0.00250357
0.400244
0.00249619
0.400252
0.00248851
0.400236
0.00248128
0.400209
0.00247487
0.400177
0.00246942
0.400145
0.00246492
0.400117
0.0024613
0.400092
0.00245843
0.400071
0.0024562
0.400055
0.00245448
0.400042
0.00245317
0.400031
0.00245218
0.400023
0.00245144
0.400017
0.00245088
0.400013
0.00245047
0.40001
0.00245017
0.400007
0.00244995
0.400005
0.00244978
0.400004
0.00244966
0.400003
0.00244957
0.400002
0.00244951
0.400001
0.00244946
0.400001
0.00244942
0.400001
0.0024494
0.400001
0.00244938
0.4
0.00244937
0.4
0.00244936
0.4
0.00244935
0.4
0.00244935
0.4
0.00244934
0.4
0.00244934
0.4
0.00244934
0.4
0.00244933
0.4
0.00244933
0.4
0.00244933
0.4
0.00244933
0.4
0.00244933
0.4
0.00244933
0.4
0.00244933
0.4
0.00244933
0.4
0.00244933
0.4
0.00244933
0.4
0.00244933
0.4
0.00244933
0.4
0.00244933
0.4
0.00244933
0.4
0.00244933
0.4
0.00244933
0.4
0.00244933
0.4
0.00244933
0.4
0.00244933
0.4
0.00244933
0.4
0.00244933
0.4
0.00244933
0.4
0.00244933
0.4
0.00244933
0.4
0.00244933
0.4
0.00244933
0.4
0.00244933
0.4
0.00244933
0.4
0.00244933
0.4
0.00244933
0.4
0.00244933
0.4
0.00244933
0.4
0.00244933
0.4
0.00244933
0.4
0.00244932
0.4
0.00244932
0.4
0.00244932
0.4
0.00244932
0.4
0.00244931
0.4
0.00244931
0.4
0.0024493
0.4
0.00244929
0.4
0.00244929
0.4
0.00244929
0.4
0.00244931
0.4
0.00244936
0.4
0.00244945
0.399999
0.00244965
0.399998
0.00245002
0.399996
0.0024507
0.399992
0.00245192
0.399985
0.00245412
0.399972
0.00245815
0.399952
0.00246578
0.39992
0.00247986
0.399872
0.00250505
0.399809
0.39976
0.00113116
0.388631
0.00145597
0.391179
0.00172339
0.393822
0.00190154
0.396058
0.00200956
0.397663
0.00207091
0.398732
0.00210388
0.399413
0.00211938
0.399829
0.00212429
0.400069
0.00212298
0.400195
0.00211834
0.400249
0.00211224
0.400258
0.00210582
0.400243
0.00209974
0.400215
0.00209434
0.400182
0.00208973
0.40015
0.00208592
0.40012
0.00208284
0.400095
0.0020804
0.400074
0.0020785
0.400057
0.00207703
0.400043
0.00207591
0.400032
0.00207507
0.400024
0.00207443
0.400018
0.00207396
0.400013
0.00207361
0.40001
0.00207335
0.400007
0.00207316
0.400005
0.00207302
0.400004
0.00207291
0.400003
0.00207284
0.400002
0.00207278
0.400002
0.00207274
0.400001
0.00207271
0.400001
0.00207269
0.400001
0.00207267
0.4
0.00207266
0.4
0.00207265
0.4
0.00207265
0.4
0.00207264
0.4
0.00207264
0.4
0.00207264
0.4
0.00207264
0.4
0.00207263
0.4
0.00207263
0.4
0.00207263
0.4
0.00207263
0.4
0.00207263
0.4
0.00207263
0.4
0.00207263
0.4
0.00207263
0.4
0.00207263
0.4
0.00207263
0.4
0.00207263
0.4
0.00207263
0.4
0.00207263
0.4
0.00207263
0.4
0.00207263
0.4
0.00207263
0.4
0.00207263
0.4
0.00207263
0.4
0.00207263
0.4
0.00207263
0.4
0.00207263
0.4
0.00207263
0.4
0.00207263
0.4
0.00207263
0.4
0.00207263
0.4
0.00207263
0.4
0.00207263
0.4
0.00207263
0.4
0.00207263
0.4
0.00207263
0.4
0.00207263
0.4
0.00207263
0.4
0.00207263
0.4
0.00207263
0.4
0.00207263
0.4
0.00207262
0.4
0.00207262
0.4
0.00207262
0.4
0.00207261
0.4
0.00207261
0.4
0.0020726
0.4
0.0020726
0.4
0.0020726
0.4
0.0020726
0.4
0.00207262
0.4
0.00207266
0.4
0.00207275
0.399999
0.00207293
0.399998
0.00207326
0.399995
0.00207386
0.399991
0.00207495
0.399983
0.00207692
0.39997
0.00208052
0.399949
0.00208738
0.399913
0.00210006
0.39986
0.00212269
0.399787
0.399727
0.000917808
0.3884
0.00118195
0.390915
0.00140244
0.393602
0.00155064
0.395909
0.00164083
0.397573
0.0016922
0.398681
0.00171996
0.399385
0.00173318
0.399815
0.00173756
0.400065
0.00173674
0.400196
0.00173311
0.400253
0.00172822
0.400263
0.00172302
0.400248
0.00171808
0.40022
0.00171367
0.400187
0.0017099
0.400154
0.00170677
0.400124
0.00170425
0.400098
0.00170224
0.400076
0.00170068
0.400058
0.00169947
0.400044
0.00169855
0.400033
0.00169785
0.400025
0.00169733
0.400019
0.00169694
0.400014
0.00169665
0.40001
0.00169644
0.400007
0.00169628
0.400006
0.00169616
0.400004
0.00169608
0.400003
0.00169601
0.400002
0.00169597
0.400002
0.00169593
0.400001
0.00169591
0.400001
0.00169589
0.400001
0.00169588
0.4
0.00169587
0.4
0.00169586
0.4
0.00169586
0.4
0.00169585
0.4
0.00169585
0.4
0.00169585
0.4
0.00169585
0.4
0.00169584
0.4
0.00169584
0.4
0.00169584
0.4
0.00169584
0.4
0.00169584
0.4
0.00169584
0.4
0.00169584
0.4
0.00169584
0.4
0.00169584
0.4
0.00169584
0.4
0.00169584
0.4
0.00169584
0.4
0.00169584
0.4
0.00169584
0.4
0.00169584
0.4
0.00169584
0.4
0.00169584
0.4
0.00169584
0.4
0.00169584
0.4
0.00169584
0.4
0.00169584
0.4
0.00169584
0.4
0.00169584
0.4
0.00169584
0.4
0.00169584
0.4
0.00169584
0.4
0.00169584
0.4
0.00169584
0.4
0.00169584
0.4
0.00169584
0.4
0.00169584
0.4
0.00169584
0.4
0.00169584
0.4
0.00169584
0.4
0.00169584
0.4
0.00169584
0.4
0.00169583
0.4
0.00169583
0.4
0.00169583
0.4
0.00169582
0.4
0.00169582
0.4
0.00169582
0.4
0.00169582
0.4
0.00169582
0.4
0.00169583
0.4
0.00169587
0.4
0.00169595
0.399999
0.0016961
0.399998
0.00169638
0.399995
0.0016969
0.399991
0.00169783
0.399983
0.00169951
0.399969
0.0017026
0.399945
0.0017085
0.399907
0.0017194
0.399849
0.00173882
0.399767
0.399699
0.00070929
0.388223
0.0009136
0.390711
0.00108605
0.393429
0.00120281
0.395793
0.00127409
0.397501
0.00131478
0.39864
0.00133686
0.399363
0.00134748
0.399805
0.00135112
0.400061
0.00135063
0.400197
0.00134791
0.400255
0.00134417
0.400267
0.00134017
0.400252
0.00133634
0.400223
0.00133291
0.40019
0.00132998
0.400157
0.00132755
0.400126
0.00132558
0.4001
0.00132402
0.400077
0.0013228
0.400059
0.00132185
0.400045
0.00132113
0.400034
0.00132059
0.400026
0.00132018
0.400019
0.00131987
0.400014
0.00131964
0.40001
0.00131948
0.400008
0.00131935
0.400006
0.00131926
0.400004
0.00131919
0.400003
0.00131914
0.400002
0.00131911
0.400002
0.00131908
0.400001
0.00131906
0.400001
0.00131905
0.400001
0.00131904
0.4
0.00131903
0.4
0.00131903
0.4
0.00131902
0.4
0.00131902
0.4
0.00131902
0.4
0.00131901
0.4
0.00131901
0.4
0.00131901
0.4
0.00131901
0.4
0.00131901
0.4
0.00131901
0.4
0.00131901
0.4
0.00131901
0.4
0.00131901
0.4
0.00131901
0.4
0.00131901
0.4
0.00131901
0.4
0.00131901
0.4
0.00131901
0.4
0.00131901
0.4
0.00131901
0.4
0.00131901
0.4
0.00131901
0.4
0.00131901
0.4
0.00131901
0.4
0.00131901
0.4
0.00131901
0.4
0.00131901
0.4
0.00131901
0.4
0.00131901
0.4
0.00131901
0.4
0.00131901
0.4
0.00131901
0.4
0.00131901
0.4
0.00131901
0.4
0.00131901
0.4
0.00131901
0.4
0.00131901
0.4
0.00131901
0.4
0.00131901
0.4
0.00131901
0.4
0.00131901
0.4
0.00131901
0.4
0.001319
0.4
0.001319
0.4
0.001319
0.4
0.001319
0.4
0.00131899
0.4
0.00131899
0.4
0.00131899
0.4
0.00131899
0.4
0.001319
0.4
0.00131903
0.4
0.0013191
0.399999
0.00131922
0.399998
0.00131945
0.399995
0.00131987
0.39999
0.00132061
0.399982
0.00132197
0.399967
0.00132446
0.399943
0.00132923
0.399902
0.00133804
0.39984
0.00135371
0.399752
0.399676
0.000504287
0.388099
0.000649566
0.390566
0.00077322
0.393306
0.000857411
0.395708
0.000908927
0.39745
0.000938387
0.398611
0.000954419
0.399347
0.000962182
0.399797
0.000964909
0.400058
0.000964647
0.400197
0.000962757
0.400257
0.000960116
0.40027
0.000957277
0.400255
0.000954553
0.400226
0.000952111
0.400192
0.00095002
0.400159
0.00094828
0.400128
0.000946869
0.400101
0.00094575
0.400079
0.000944876
0.40006
0.0009442