/*--------------------------------*- C++ -*----------------------------------*\
| =========                 |                                                 |
| \\      /  F ield         | OpenFOAM: The Open Source CFD Toolbox           |
|  \\    /   O peration     | Version:  v1906                                 |
|   \\  /    A nd           | Web:      www.OpenFOAM.com                      |
|    \\/     M anipulation  |                                                 |
\*---------------------------------------------------------------------------*/
FoamFile
{
    version     2.0;
    format      ascii;
    class       surfaceScalarField;
    location    "0.5";
    object      phiB;
}
// * * * * * * * * * * * * * * * * * * * * * * * * * * * * * * * * * * * * * //

dimensions      [1 2 -2 0 0 -1 0];
oriented        oriented;


internalField   nonuniform List<scalar> 
7860
(
0.0022148
0.79933
0.00252701
0.799688
0.00259702
0.79993
0.00259068
0.800006
0.00256315
0.800028
0.00253162
0.800032
0.00250884
0.800023
0.00249206
0.800017
0.00248209
0.80001
0.00247565
0.800006
0.00247217
0.800003
0.00247003
0.800002
0.00246894
0.800001
0.00246828
0.800001
0.00246795
0.8
0.00246775
0.8
0.00246765
0.8
0.00246759
0.8
0.00246757
0.8
0.00246755
0.8
0.00246754
0.8
0.00246754
0.8
0.00246754
0.8
0.00246753
0.8
0.00246753
0.8
0.00246753
0.8
0.00246753
0.8
0.00246753
0.8
0.00246753
0.8
0.00246753
0.8
0.00246753
0.8
0.00246753
0.8
0.00246753
0.8
0.00246753
0.8
0.00246753
0.8
0.00246753
0.8
0.00246753
0.8
0.00246753
0.8
0.00246753
0.8
0.00246753
0.8
0.00246753
0.8
0.00246753
0.8
0.00246753
0.8
0.00246753
0.8
0.00246753
0.8
0.00246753
0.8
0.00246753
0.8
0.00246753
0.8
0.00246753
0.8
0.00246753
0.8
0.00246753
0.8
0.00246753
0.8
0.00246753
0.8
0.00246753
0.8
0.00246753
0.8
0.00246753
0.8
0.00246753
0.8
0.00246753
0.8
0.00246753
0.8
0.00246753
0.8
0.00246753
0.8
0.00246753
0.8
0.00246753
0.8
0.00246753
0.8
0.00246753
0.8
0.00246753
0.8
0.00246753
0.8
0.00246753
0.8
0.00246753
0.8
0.00246753
0.8
0.00246753
0.8
0.00246753
0.8
0.00246753
0.8
0.00246753
0.8
0.00246753
0.8
0.00246753
0.8
0.00246753
0.8
0.00246753
0.8
0.00246753
0.8
0.00246753
0.8
0.00246753
0.8
0.00246753
0.8
0.00246753
0.8
0.00246753
0.8
0.00246753
0.8
0.00246753
0.8
0.00246753
0.8
0.00246753
0.8
0.00246753
0.8
0.00246752
0.8
0.00246752
0.8
0.00246751
0.8
0.00246749
0.8
0.00246746
0.8
0.00246743
0.8
0.00246743
0.8
0.00246745
0.8
0.00246791
0.8
0.00246591
0.800002
0.800006
0.00354432
0.798305
0.00399338
0.799239
0.00410107
0.799822
0.00410297
0.800004
0.00406622
0.800064
0.00402655
0.800071
0.00399513
0.800054
0.00397316
0.800039
0.00395921
0.800024
0.00395067
0.800015
0.00394573
0.800008
0.00394289
0.800005
0.00394132
0.800003
0.00394044
0.800002
0.00393996
0.800001
0.0039397
0.8
0.00393956
0.8
0.00393948
0.8
0.00393944
0.8
0.00393942
0.8
0.00393941
0.8
0.0039394
0.8
0.0039394
0.8
0.00393939
0.8
0.00393939
0.8
0.00393939
0.8
0.00393939
0.8
0.00393939
0.8
0.00393939
0.8
0.00393939
0.8
0.00393939
0.8
0.00393939
0.8
0.00393939
0.8
0.00393939
0.8
0.00393939
0.8
0.00393939
0.8
0.00393939
0.8
0.00393939
0.8
0.00393939
0.8
0.00393939
0.8
0.00393939
0.8
0.00393939
0.8
0.00393939
0.8
0.00393939
0.8
0.00393939
0.8
0.00393939
0.8
0.00393939
0.8
0.00393939
0.8
0.00393939
0.8
0.00393939
0.8
0.00393939
0.8
0.00393939
0.8
0.00393939
0.8
0.00393939
0.8
0.00393939
0.8
0.00393939
0.8
0.00393939
0.8
0.00393939
0.8
0.00393939
0.8
0.00393939
0.8
0.00393939
0.8
0.00393939
0.8
0.00393939
0.8
0.00393939
0.8
0.00393939
0.8
0.00393939
0.8
0.00393939
0.8
0.00393939
0.8
0.00393939
0.8
0.00393939
0.8
0.00393939
0.8
0.00393939
0.8
0.00393939
0.8
0.00393939
0.8
0.00393939
0.8
0.00393939
0.8
0.00393939
0.8
0.00393939
0.8
0.00393939
0.8
0.00393939
0.8
0.00393939
0.8
0.00393939
0.8
0.00393939
0.8
0.00393939
0.8
0.00393939
0.8
0.00393939
0.8
0.00393939
0.8
0.00393939
0.8
0.00393939
0.8
0.00393938
0.8
0.00393937
0.8
0.00393936
0.8
0.00393934
0.8
0.00393931
0.8
0.00393927
0.8
0.00393933
0.8
0.00393948
0.8
0.00394036
0.799999
0.00393818
0.800004
0.800012
0.00382414
0.797222
0.00427801
0.798785
0.00439632
0.799704
0.00440931
0.799991
0.00437546
0.800098
0.0043406
0.800106
0.00431011
0.800085
0.00428979
0.800059
0.00427599
0.800038
0.00426796
0.800023
0.00426301
0.800013
0.00426032
0.800008
0.00425873
0.800004
0.0042579
0.800002
0.00425741
0.800001
0.00425716
0.800001
0.00425701
0.8
0.00425694
0.8
0.0042569
0.8
0.00425688
0.8
0.00425687
0.8
0.00425686
0.8
0.00425686
0.8
0.00425685
0.8
0.00425685
0.8
0.00425685
0.8
0.00425685
0.8
0.00425685
0.8
0.00425685
0.8
0.00425685
0.8
0.00425685
0.8
0.00425685
0.8
0.00425685
0.8
0.00425685
0.8
0.00425685
0.8
0.00425685
0.8
0.00425685
0.8
0.00425685
0.8
0.00425685
0.8
0.00425685
0.8
0.00425685
0.8
0.00425685
0.8
0.00425685
0.8
0.00425685
0.8
0.00425685
0.8
0.00425685
0.8
0.00425685
0.8
0.00425685
0.8
0.00425685
0.8
0.00425685
0.8
0.00425685
0.8
0.00425685
0.8
0.00425685
0.8
0.00425685
0.8
0.00425685
0.8
0.00425685
0.8
0.00425685
0.8
0.00425685
0.8
0.00425685
0.8
0.00425685
0.8
0.00425685
0.8
0.00425685
0.8
0.00425685
0.8
0.00425685
0.8
0.00425685
0.8
0.00425685
0.8
0.00425685
0.8
0.00425685
0.8
0.00425685
0.8
0.00425685
0.8
0.00425685
0.8
0.00425685
0.8
0.00425685
0.8
0.00425685
0.8
0.00425685
0.8
0.00425685
0.8
0.00425685
0.8
0.00425685
0.8
0.00425685
0.8
0.00425685
0.8
0.00425685
0.8
0.00425685
0.8
0.00425685
0.8
0.00425685
0.8
0.00425685
0.8
0.00425685
0.8
0.00425685
0.8
0.00425685
0.8
0.00425685
0.8
0.00425684
0.8
0.00425683
0.8
0.00425682
0.8
0.0042568
0.8
0.00425678
0.8
0.00425677
0.8
0.00425688
0.8
0.00425721
0.8
0.00425845
0.799997
0.00425815
0.800004
0.800015
0.00373362
0.796134
0.00417998
0.798338
0.00430834
0.799576
0.00432933
0.79997
0.00429975
0.800128
0.00426893
0.800137
0.00424009
0.800114
0.00422122
0.800078
0.0042079
0.800051
0.00420032
0.800031
0.00419547
0.800018
0.00419291
0.80001
0.00419133
0.800006
0.00419054
0.800003
0.00419005
0.800002
0.00418982
0.800001
0.00418967
0.800001
0.0041896
0.8
0.00418956
0.8
0.00418954
0.8
0.00418952
0.8
0.00418952
0.8
0.00418952
0.8
0.00418951
0.8
0.00418951
0.8
0.00418951
0.8
0.00418951
0.8
0.00418951
0.8
0.00418951
0.8
0.00418951
0.8
0.00418951
0.8
0.00418951
0.8
0.00418951
0.8
0.00418951
0.8
0.00418951
0.8
0.00418951
0.8
0.00418951
0.8
0.00418951
0.8
0.00418951
0.8
0.00418951
0.8
0.00418951
0.8
0.00418951
0.8
0.00418951
0.8
0.00418951
0.8
0.00418951
0.8
0.00418951
0.8
0.00418951
0.8
0.00418951
0.8
0.00418951
0.8
0.00418951
0.8
0.00418951
0.8
0.00418951
0.8
0.00418951
0.8
0.00418951
0.8
0.00418951
0.8
0.00418951
0.8
0.00418951
0.8
0.00418951
0.8
0.00418951
0.8
0.00418951
0.8
0.00418951
0.8
0.00418951
0.8
0.00418951
0.8
0.00418951
0.8
0.00418951
0.8
0.00418951
0.8
0.00418951
0.8
0.00418951
0.8
0.00418951
0.8
0.00418951
0.8
0.00418951
0.8
0.00418951
0.8
0.00418951
0.8
0.00418951
0.8
0.00418951
0.8
0.00418951
0.8
0.00418951
0.8
0.00418951
0.8
0.00418951
0.8
0.00418951
0.8
0.00418951
0.8
0.00418951
0.8
0.00418951
0.8
0.00418951
0.8
0.00418951
0.8
0.00418951
0.8
0.00418951
0.8
0.00418951
0.8
0.00418951
0.8
0.0041895
0.8
0.00418949
0.8
0.00418948
0.8
0.00418947
0.8
0.00418945
0.8
0.00418947
0.8
0.00418963
0.8
0.00419015
0.799999
0.00419179
0.799996
0.004194
0.800002
0.800012
0.00352372
0.795072
0.00395859
0.797904
0.00409387
0.79944
0.00412109
0.799943
0.00409584
0.800153
0.00406868
0.800164
0.00404169
0.800141
0.00402421
0.800095
0.00401147
0.800064
0.00400433
0.800038
0.00399963
0.800023
0.0039972
0.800013
0.00399566
0.800007
0.00399491
0.800004
0.00399442
0.800002
0.0039942
0.800001
0.00399405
0.800001
0.00399399
0.8
0.00399395
0.8
0.00399393
0.8
0.00399392
0.8
0.00399391
0.8
0.00399391
0.8
0.00399391
0.8
0.00399391
0.8
0.0039939
0.8
0.0039939
0.8
0.0039939
0.8
0.0039939
0.8
0.0039939
0.8
0.0039939
0.8
0.0039939
0.8
0.0039939
0.8
0.0039939
0.8
0.0039939
0.8
0.0039939
0.8
0.0039939
0.8
0.0039939
0.8
0.0039939
0.8
0.0039939
0.8
0.0039939
0.8
0.0039939
0.8
0.0039939
0.8
0.0039939
0.8
0.0039939
0.8
0.0039939
0.8
0.0039939
0.8
0.0039939
0.8
0.0039939
0.8
0.0039939
0.8
0.00399391
0.8
0.0039939
0.8
0.0039939
0.8
0.0039939
0.8
0.0039939
0.8
0.0039939
0.8
0.0039939
0.8
0.0039939
0.8
0.0039939
0.8
0.0039939
0.8
0.00399391
0.8
0.0039939
0.8
0.0039939
0.8
0.0039939
0.8
0.0039939
0.8
0.0039939
0.8
0.0039939
0.8
0.0039939
0.8
0.00399391
0.8
0.00399391
0.8
0.00399391
0.8
0.00399391
0.8
0.00399391
0.8
0.00399391
0.8
0.00399391
0.8
0.0039939
0.8
0.0039939
0.8
0.0039939
0.8
0.00399391
0.8
0.00399391
0.8
0.00399391
0.8
0.00399391
0.8
0.00399391
0.8
0.00399391
0.8
0.0039939
0.8
0.0039939
0.8
0.0039939
0.8
0.0039939
0.8
0.0039939
0.8
0.0039939
0.8
0.00399389
0.8
0.00399388
0.8
0.00399386
0.8
0.00399386
0.8
0.0039939
0.8
0.00399412
0.799999
0.00399481
0.799998
0.00399684
0.799994
0.00400153
0.799998
0.800005
0.00327843
0.794055
0.00369966
0.797482
0.00383853
0.799301
0.00387059
0.799911
0.00384935
0.800174
0.00382556
0.800188
0.00380045
0.800166
0.00378432
0.800112
0.00377223
0.800076
0.00376553
0.800044
0.00376102
0.800027
0.00375872
0.800015
0.00375722
0.800009
0.00375651
0.800005
0.00375604
0.800003
0.00375583
0.800001
0.00375569
0.800001
0.00375563
0.8
0.00375558
0.8
0.00375557
0.8
0.00375555
0.8
0.00375555
0.8
0.00375554
0.8
0.00375554
0.8
0.00375554
0.8
0.00375554
0.8
0.00375554
0.8
0.00375554
0.8
0.00375554
0.8
0.00375554
0.8
0.00375554
0.8
0.00375554
0.8
0.00375554
0.8
0.00375554
0.8
0.00375554
0.8
0.00375554
0.8
0.00375554
0.8
0.00375554
0.8
0.00375554
0.8
0.00375554
0.8
0.00375554
0.8
0.00375554
0.8
0.00375554
0.8
0.00375554
0.8
0.00375554
0.8
0.00375554
0.8
0.00375554
0.8
0.00375554
0.8
0.00375554
0.8
0.00375554
0.8
0.00375554
0.8
0.00375554
0.8
0.00375554
0.8
0.00375554
0.8
0.00375554
0.8
0.00375554
0.8
0.00375554
0.8
0.00375554
0.8
0.00375554
0.8
0.00375554
0.8
0.00375554
0.8
0.00375554
0.8
0.00375554
0.8
0.00375554
0.8
0.00375554
0.8
0.00375554
0.8
0.00375554
0.8
0.00375554
0.8
0.00375554
0.8
0.00375554
0.8
0.00375554
0.8
0.00375554
0.8
0.00375554
0.8
0.00375554
0.8
0.00375554
0.8
0.00375554
0.8
0.00375554
0.8
0.00375554
0.8
0.00375554
0.8
0.00375554
0.8
0.00375554
0.8
0.00375554
0.8
0.00375554
0.8
0.00375554
0.8
0.00375554
0.8
0.00375554
0.8
0.00375554
0.8
0.00375554
0.8
0.00375554
0.8
0.00375553
0.8
0.00375553
0.8
0.00375552
0.8
0.00375551
0.8
0.00375551
0.8
0.00375558
0.8
0.00375584
0.799999
0.00375671
0.799997
0.00375909
0.799991
0.0037659
0.799991
0.799994
0.00302582
0.793097
0.00343137
0.797077
0.00357085
0.799162
0.00360648
0.799876
0.00358882
0.800192
0.00356813
0.800209
0.00354489
0.800189
0.00353009
0.800126
0.00351869
0.800087
0.00351243
0.800051
0.00350813
0.800032
0.00350597
0.800017
0.00350453
0.80001
0.00350386
0.800005
0.0035034
0.800003
0.0035032
0.800002
0.00350306
0.800001
0.00350301
0.8
0.00350296
0.8
0.00350295
0.8
0.00350294
0.8
0.00350293
0.8
0.00350293
0.8
0.00350293
0.8
0.00350293
0.8
0.00350293
0.8
0.00350293
0.8
0.00350293
0.8
0.00350293
0.8
0.00350293
0.8
0.00350293
0.8
0.00350293
0.8
0.00350293
0.8
0.00350293
0.8
0.00350293
0.8
0.00350293
0.8
0.00350293
0.8
0.00350293
0.8
0.00350293
0.8
0.00350293
0.8
0.00350293
0.8
0.00350293
0.8
0.00350293
0.8
0.00350293
0.8
0.00350293
0.8
0.00350293
0.8
0.00350293
0.8
0.00350293
0.8
0.00350293
0.8
0.00350293
0.8
0.00350293
0.8
0.00350293
0.8
0.00350293
0.8
0.00350293
0.8
0.00350293
0.8
0.00350293
0.8
0.00350293
0.8
0.00350293
0.8
0.00350293
0.8
0.00350293
0.8
0.00350293
0.8
0.00350293
0.8
0.00350293
0.8
0.00350293
0.8
0.00350293
0.8
0.00350293
0.8
0.00350293
0.8
0.00350293
0.8
0.00350293
0.8
0.00350293
0.8
0.00350293
0.8
0.00350293
0.8
0.00350293
0.8
0.00350293
0.8
0.00350293
0.8
0.00350293
0.8
0.00350293
0.8
0.00350293
0.8
0.00350293
0.8
0.00350293
0.8
0.00350293
0.8
0.00350293
0.8
0.00350293
0.8
0.00350293
0.8
0.00350293
0.8
0.00350293
0.8
0.00350292
0.8
0.00350292
0.8
0.00350292
0.8
0.00350292
0.8
0.00350291
0.8
0.0035029
0.8
0.0035029
0.8
0.00350291
0.8
0.00350299
0.8
0.00350329
0.799999
0.00350431
0.799996
0.00350699
0.799989
0.00351549
0.799982
0.79998
0.00277516
0.792204
0.00316278
0.796689
0.00330031
0.799024
0.00333828
0.799838
0.00332378
0.800206
0.00330592
0.800226
0.00328453
0.80021
0.00327103
0.80014
0.00326034
0.800098
0.00325454
0.800056
0.00325047
0.800036
0.00324845
0.800019
0.00324708
0.800012
0.00324645
0.800006
0.00324601
0.800004
0.00324582
0.800002
0.00324569
0.800001
0.00324564
0.800001
0.0032456
0.8
0.00324558
0.8
0.00324557
0.8
0.00324557
0.8
0.00324556
0.8
0.00324556
0.8
0.00324556
0.8
0.00324556
0.8
0.00324556
0.8
0.00324556
0.8
0.00324556
0.8
0.00324556
0.8
0.00324556
0.8
0.00324556
0.8
0.00324556
0.8
0.00324556
0.8
0.00324556
0.8
0.00324556
0.8
0.00324556
0.8
0.00324556
0.8
0.00324556
0.8
0.00324556
0.8
0.00324556
0.8
0.00324556
0.8
0.00324556
0.8
0.00324556
0.8
0.00324556
0.8
0.00324556
0.8
0.00324556
0.8
0.00324556
0.8
0.00324556
0.8
0.00324556
0.8
0.00324556
0.8
0.00324556
0.8
0.00324556
0.8
0.00324556
0.8
0.00324556
0.8
0.00324556
0.8
0.00324556
0.8
0.00324556
0.8
0.00324556
0.8
0.00324556
0.8
0.00324556
0.8
0.00324556
0.8
0.00324556
0.8
0.00324556
0.8
0.00324556
0.8
0.00324556
0.8
0.00324556
0.8
0.00324556
0.8
0.00324556
0.8
0.00324556
0.8
0.00324556
0.8
0.00324556
0.8
0.00324556
0.8
0.00324556
0.8
0.00324556
0.8
0.00324556
0.8
0.00324556
0.8
0.00324556
0.8
0.00324556
0.8
0.00324556
0.8
0.00324556
0.8
0.00324556
0.8
0.00324556
0.8
0.00324556
0.8
0.00324556
0.8
0.00324556
0.8
0.00324556
0.8
0.00324556
0.8
0.00324556
0.8
0.00324555
0.8
0.00324555
0.8
0.00324554
0.8
0.00324554
0.8
0.00324555
0.8
0.00324565
0.8
0.00324599
0.799999
0.00324713
0.799995
0.00325003
0.799986
0.00325977
0.799973
0.799963
0.00252934
0.791381
0.00289657
0.796322
0.00303
0.798891
0.00306917
0.799798
0.00305742
0.800218
0.00304212
0.800242
0.00302255
0.80023
0.00301031
0.800152
0.00300037
0.800108
0.00299503
0.800062
0.0029912
0.80004
0.00298933
0.800021
0.00298803
0.800013
0.00298745
0.800007
0.00298703
0.800004
0.00298686
0.800002
0.00298673
0.800001
0.00298668
0.800001
0.00298664
0.8
0.00298663
0.8
0.00298662
0.8
0.00298662
0.8
0.00298661
0.8
0.00298661
0.8
0.00298661
0.8
0.00298661
0.8
0.00298661
0.8
0.00298661
0.8
0.00298661
0.8
0.00298661
0.8
0.00298661
0.8
0.00298661
0.8
0.00298661
0.8
0.00298661
0.8
0.00298661
0.8
0.00298661
0.8
0.00298661
0.8
0.00298661
0.8
0.00298661
0.8
0.00298661
0.8
0.00298661
0.8
0.00298661
0.8
0.00298661
0.8
0.00298661
0.8
0.00298661
0.8
0.00298661
0.8
0.00298661
0.8
0.00298661
0.8
0.00298661
0.8
0.00298661
0.8
0.00298661
0.8
0.00298661
0.8
0.00298661
0.8
0.00298661
0.8
0.00298661
0.8
0.00298661
0.8
0.00298661
0.8
0.00298661
0.8
0.00298661
0.8
0.00298661
0.8
0.00298661
0.8
0.00298661
0.8
0.00298661
0.8
0.00298661
0.8
0.00298661
0.8
0.00298661
0.8
0.00298661
0.8
0.00298661
0.8
0.00298661
0.8
0.00298661
0.8
0.00298661
0.8
0.00298661
0.8
0.00298661
0.8
0.00298661
0.8
0.00298661
0.8
0.00298661
0.8
0.00298661
0.8
0.00298661
0.8
0.00298661
0.8
0.00298661
0.8
0.00298661
0.8
0.00298661
0.8
0.00298661
0.8
0.00298661
0.8
0.00298661
0.8
0.00298661
0.8
0.00298661
0.8
0.00298661
0.8
0.00298661
0.8
0.0029866
0.8
0.0029866
0.8
0.00298659
0.8
0.00298659
0.8
0.00298661
0.8
0.00298673
0.8
0.00298709
0.799998
0.00298831
0.799994
0.00299137
0.799983
0.00300192
0.799962
0.799945
0.00228906
0.790631
0.00263341
0.795978
0.00276086
0.798764
0.00280016
0.799759
0.00279078
0.800227
0.00277777
0.800255
0.00276002
0.800248
0.00274899
0.800163
0.00273982
0.800117
0.00273495
0.800067
0.00273139
0.800043
0.00272967
0.800023
0.00272846
0.800014
0.00272792
0.800007
0.00272753
0.800004
0.00272737
0.800002
0.00272725
0.800001
0.0027272
0.800001
0.00272717
0.8
0.00272715
0.8
0.00272714
0.8
0.00272714
0.8
0.00272714
0.8
0.00272713
0.8
0.00272713
0.8
0.00272713
0.8
0.00272713
0.8
0.00272713
0.8
0.00272713
0.8
0.00272713
0.8
0.00272713
0.8
0.00272713
0.8
0.00272713
0.8
0.00272713
0.8
0.00272713
0.8
0.00272713
0.8
0.00272713
0.8
0.00272713
0.8
0.00272713
0.8
0.00272713
0.8
0.00272713
0.8
0.00272713
0.8
0.00272713
0.8
0.00272713
0.8
0.00272713
0.8
0.00272713
0.8
0.00272713
0.8
0.00272713
0.8
0.00272713
0.8
0.00272713
0.8
0.00272713
0.8
0.00272713
0.8
0.00272713
0.8
0.00272713
0.8
0.00272713
0.8
0.00272713
0.8
0.00272713
0.8
0.00272713
0.8
0.00272713
0.8
0.00272713
0.8
0.00272713
0.8
0.00272713
0.8
0.00272713
0.8
0.00272713
0.8
0.00272713
0.8
0.00272713
0.8
0.00272713
0.8
0.00272713
0.8
0.00272713
0.8
0.00272713
0.8
0.00272713
0.8
0.00272713
0.8
0.00272713
0.8
0.00272713
0.8
0.00272713
0.8
0.00272713
0.8
0.00272713
0.8
0.00272713
0.8
0.00272713
0.8
0.00272713
0.8
0.00272713
0.8
0.00272713
0.8
0.00272713
0.8
0.00272713
0.8
0.00272713
0.8
0.00272713
0.8
0.00272713
0.8
0.00272713
0.8
0.00272713
0.8
0.00272713
0.8
0.00272712
0.8
0.00272712
0.8
0.00272712
0.8
0.00272714
0.8
0.00272727
0.8
0.00272764
0.799998
0.00272892
0.799993
0.00273204
0.79998
0.00274303
0.799951
0.799925
0.00205423
0.789956
0.00237326
0.795659
0.00249313
0.798644
0.00253159
0.799721
0.00252423
0.800235
0.00251325
0.800266
0.00249728
0.800264
0.00248744
0.800173
0.00247907
0.800125
0.00247466
0.800071
0.00247138
0.800046
0.00246982
0.800024
0.0024687
0.800015
0.0024682
0.800008
0.00246784
0.800005
0.0024677
0.800002
0.00246759
0.800001
0.00246754
0.800001
0.00246751
0.8
0.0024675
0.8
0.00246749
0.8
0.00246749
0.8
0.00246748
0.8
0.00246748
0.8
0.00246748
0.8
0.00246748
0.8
0.00246748
0.8
0.00246748
0.8
0.00246748
0.8
0.00246748
0.8
0.00246748
0.8
0.00246748
0.8
0.00246748
0.8
0.00246748
0.8
0.00246748
0.8
0.00246748
0.8
0.00246748
0.8
0.00246748
0.8
0.00246748
0.8
0.00246748
0.8
0.00246748
0.8
0.00246748
0.8
0.00246748
0.8
0.00246748
0.8
0.00246748
0.8
0.00246748
0.8
0.00246748
0.8
0.00246748
0.8
0.00246748
0.8
0.00246748
0.8
0.00246748
0.8
0.00246748
0.8
0.00246748
0.8
0.00246748
0.8
0.00246748
0.8
0.00246748
0.8
0.00246748
0.8
0.00246748
0.8
0.00246748
0.8
0.00246748
0.8
0.00246748
0.8
0.00246748
0.8
0.00246748
0.8
0.00246748
0.8
0.00246748
0.8
0.00246748
0.8
0.00246748
0.8
0.00246748
0.8
0.00246748
0.8
0.00246748
0.8
0.00246748
0.8
0.00246748
0.8
0.00246748
0.8
0.00246748
0.8
0.00246748
0.8
0.00246748
0.8
0.00246748
0.8
0.00246748
0.8
0.00246748
0.8
0.00246748
0.8
0.00246748
0.8
0.00246748
0.8
0.00246748
0.8
0.00246748
0.8
0.00246748
0.8
0.00246748
0.8
0.00246748
0.8
0.00246748
0.8
0.00246748
0.8
0.00246747
0.8
0.00246747
0.8
0.00246747
0.8
0.00246747
0.8
0.0024675
0.8
0.00246763
0.799999
0.002468
0.799997
0.0024693
0.799991
0.00247241
0.799976
0.00248346
0.79994
0.799905
0.00182445
0.789355
0.00211591
0.795367
0.00222678
0.798533
0.00226351
0.799684
0.00225785
0.80024
0.00224867
0.800275
0.00223447
0.800278
0.00222577
0.800182
0.00221822
0.800133
0.00221427
0.800075
0.0022113
0.800049
0.0022099
0.800026
0.00220887
0.800016
0.00220843
0.800008
0.0022081
0.800005
0.00220797
0.800002
0.00220786
0.800002
0.00220783
0.800001
0.0022078
0.8
0.00220779
0.8
0.00220778
0.8
0.00220777
0.8
0.00220777
0.8
0.00220777
0.8
0.00220777
0.8
0.00220777
0.8
0.00220777
0.8
0.00220777
0.8
0.00220777
0.8
0.00220777
0.8
0.00220777
0.8
0.00220777
0.8
0.00220777
0.8
0.00220777
0.8
0.00220777
0.8
0.00220777
0.8
0.00220777
0.8
0.00220777
0.8
0.00220777
0.8
0.00220777
0.8
0.00220777
0.8
0.00220777
0.8
0.00220777
0.8
0.00220777
0.8
0.00220777
0.8
0.00220777
0.8
0.00220777
0.8
0.00220777
0.8
0.00220777
0.8
0.00220777
0.8
0.00220777
0.8
0.00220777
0.8
0.00220777
0.8
0.00220777
0.8
0.00220777
0.8
0.00220777
0.8
0.00220777
0.8
0.00220777
0.8
0.00220777
0.8
0.00220777
0.8
0.00220777
0.8
0.00220777
0.8
0.00220777
0.8
0.00220777
0.8
0.00220777
0.8
0.00220777
0.8
0.00220777
0.8
0.00220777
0.8
0.00220777
0.8
0.00220777
0.8
0.00220777
0.8
0.00220777
0.8
0.00220777
0.8
0.00220777
0.8
0.00220777
0.8
0.00220777
0.8
0.00220777
0.8
0.00220777
0.8
0.00220777
0.8
0.00220777
0.8
0.00220777
0.8
0.00220777
0.8
0.00220777
0.8
0.00220777
0.8
0.00220777
0.8
0.00220777
0.8
0.00220777
0.8
0.00220777
0.8
0.00220777
0.8
0.00220776
0.8
0.00220776
0.8
0.00220776
0.8
0.00220776
0.8
0.00220779
0.8
0.00220792
0.799999
0.00220829
0.799997
0.00220957
0.79999
0.00221259
0.799973
0.00222338
0.799929
0.799885
0.00159923
0.788827
0.00186107
0.795105
0.00196172
0.798432
0.00199594
0.79965
0.00199168
0.800245
0.00198408
0.800282
0.00197163
0.80029
0.00196403
0.800189
0.00195733
0.80014
0.00195385
0.800079
0.00195119
0.800052
0.00194994
0.800027
0.00194903
0.800017
0.00194863
0.800008
0.00194833
0.800005
0.00194822
0.800002
0.00194812
0.800002
0.00194809
0.800001
0.00194806
0.8
0.00194805
0.8
0.00194805
0.8
0.00194804
0.8
0.00194804
0.8
0.00194804
0.8
0.00194804
0.8
0.00194804
0.8
0.00194804
0.8
0.00194804
0.8
0.00194804
0.8
0.00194804
0.8
0.00194804
0.8
0.00194804
0.8
0.00194804
0.8
0.00194804
0.8
0.00194804
0.8
0.00194804
0.8
0.00194804
0.8
0.00194804
0.8
0.00194804
0.8
0.00194804
0.8
0.00194804
0.8
0.00194804
0.8
0.00194804
0.8
0.00194804
0.8
0.00194804
0.8
0.00194804
0.8
0.00194804
0.8
0.00194804
0.8
0.00194804
0.8
0.00194804
0.8
0.00194804
0.8
0.00194804
0.8
0.00194804
0.8
0.00194804
0.8
0.00194804
0.8
0.00194804
0.8
0.00194804
0.8
0.00194804
0.8
0.00194804
0.8
0.00194804
0.8
0.00194804
0.8
0.00194804
0.8
0.00194804
0.8
0.00194804
0.8
0.00194804
0.8
0.00194804
0.8
0.00194804
0.8
0.00194804
0.8
0.00194804
0.8
0.00194804
0.8
0.00194804
0.8
0.00194804
0.8
0.00194804
0.8
0.00194804
0.8
0.00194804
0.8
0.00194804
0.8
0.00194804
0.8
0.00194804
0.8
0.00194804
0.8
0.00194804
0.8
0.00194804
0.8
0.00194804
0.8
0.00194804
0.8
0.00194804
0.8
0.00194804
0.8
0.00194804
0.8
0.00194804
0.8
0.00194804
0.8
0.00194804
0.8
0.00194803
0.8
0.00194803
0.8
0.00194803
0.8
0.00194803
0.8
0.00194806
0.8
0.00194819
0.799999
0.00194854
0.799997
0.00194977
0.799989
0.00195263
0.799971
0.00196286
0.799919
0.799865
0.00137803
0.788373
0.00160845
0.794875
0.00169781
0.798343
0.00172883
0.799619
0.0017257
0.800248
0.0017195
0.800289
0.00170877
0.800301
0.00170224
0.800196
0.00169641
0.800145
0.00169339
0.800082
0.00169106
0.800054
0.00168997
0.800028
0.00168917
0.800018
0.00168882
0.800009
0.00168856
0.800006
0.00168846
0.800003
0.00168838
0.800002
0.00168835
0.800001
0.00168832
0.800001
0.00168832
0.8
0.00168831
0.8
0.00168831
0.8
0.0016883
0.8
0.0016883
0.8
0.0016883
0.8
0.0016883
0.8
0.0016883
0.8
0.0016883
0.8
0.0016883
0.8
0.0016883
0.8
0.0016883
0.8
0.0016883
0.8
0.0016883
0.8
0.0016883
0.8
0.0016883
0.8
0.0016883
0.8
0.0016883
0.8
0.0016883
0.8
0.0016883
0.8
0.0016883
0.8
0.0016883
0.8
0.0016883
0.8
0.0016883
0.8
0.0016883
0.8
0.0016883
0.8
0.0016883
0.8
0.0016883
0.8
0.0016883
0.8
0.0016883
0.8
0.0016883
0.8
0.0016883
0.8
0.0016883
0.8
0.0016883
0.8
0.0016883
0.8
0.0016883
0.8
0.0016883
0.8
0.0016883
0.8
0.0016883
0.8
0.0016883
0.8
0.0016883
0.8
0.0016883
0.8
0.0016883
0.8
0.0016883
0.8
0.0016883
0.8
0.0016883
0.8
0.0016883
0.8
0.0016883
0.8
0.0016883
0.8
0.0016883
0.8
0.0016883
0.8
0.0016883
0.8
0.0016883
0.8
0.0016883
0.8
0.0016883
0.8
0.0016883
0.8
0.0016883
0.8
0.0016883
0.8
0.0016883
0.8
0.0016883
0.8
0.0016883
0.8
0.0016883
0.8
0.0016883
0.8
0.0016883
0.8
0.0016883
0.8
0.0016883
0.8
0.0016883
0.8
0.0016883
0.8
0.0016883
0.8
0.0016883
0.8
0.0016883
0.8
0.0016883
0.8
0.00168829
0.8
0.0016883
0.8
0.00168833
0.8
0.00168844
0.799999
0.00168877
0.799996
0.00168991
0.799988
0.00169254
0.799968
0.00170194
0.79991
0.799848
0.00116027
0.787991
0.00135774
0.794677
0.0014349
0.798266
0.00146213
0.799591
0.0014599
0.80025
0.00145493
0.800294
0.00144589
0.80031
0.00144042
0.800201
0.00143546
0.80015
0.0014329
0.800084
0.00143092
0.800056
0.00142999
0.800029
0.0014293
0.800019
0.00142901
0.800009
0.00142878
0.800006
0.0014287
0.800003
0.00142863
0.800002
0.0014286
0.800001
0.00142858
0.800001
0.00142857
0.8
0.00142857
0.8
0.00142857
0.8
0.00142856
0.8
0.00142856
0.8
0.00142856
0.8
0.00142856
0.8
0.00142856
0.8
0.00142856
0.8
0.00142856
0.8
0.00142856
0.8
0.00142856
0.8
0.00142856
0.8
0.00142856
0.8
0.00142856
0.8
0.00142856
0.8
0.00142856
0.8
0.00142856
0.8
0.00142856
0.8
0.00142856
0.8
0.00142856
0.8
0.00142856
0.8
0.00142856
0.8
0.00142856
0.8
0.00142856
0.8
0.00142856
0.8
0.00142856
0.8
0.00142856
0.8
0.00142856
0.8
0.00142856
0.8
0.00142856
0.8
0.00142856
0.8
0.00142856
0.8
0.00142856
0.8
0.00142856
0.8
0.00142856
0.8
0.00142856
0.8
0.00142856
0.8
0.00142856
0.8
0.00142856
0.8
0.00142856
0.8
0.00142856
0.8
0.00142856
0.8
0.00142856
0.8
0.00142856
0.8
0.00142856
0.8
0.00142856
0.8
0.00142856
0.8
0.00142856
0.8
0.00142856
0.8
0.00142856
0.8
0.00142856
0.8
0.00142856
0.8
0.00142856
0.8
0.00142856
0.8
0.00142856
0.8
0.00142856
0.8
0.00142856
0.8
0.00142856
0.8
0.00142856
0.8
0.00142856
0.8
0.00142856
0.8
0.00142856
0.8
0.00142856
0.8
0.00142856
0.8
0.00142856
0.8
0.00142856
0.8
0.00142856
0.8
0.00142856
0.8
0.00142856
0.8
0.00142856
0.8
0.00142856
0.8
0.00142856
0.8
0.00142856
0.8
0.00142859
0.8
0.00142869
0.799999
0.00142899
0.799996
0.00143
0.799987
0.00143234
0.799966
0.0014407
0.799901
0.799832
0.000945416
0.78768
0.00110867
0.794514
0.00117285
0.798201
0.00119579
0.799569
0.00119425
0.800252
0.00119038
0.800297
0.00118301
0.800317
0.00117856
0.800206
0.00117449
0.800155
0.0011724
0.800086
0.00117076
0.800058
0.00117
0.80003
0.00116943
0.800019
0.00116919
0.800009
0.00116901
0.800006
0.00116894
0.800003
0.00116888
0.800002
0.00116886
0.800001
0.00116884
0.800001
0.00116883
0.8
0.00116883
0.8
0.00116883
0.8
0.00116883
0.8
0.00116882
0.8
0.00116882
0.8
0.00116882
0.8
0.00116882
0.8
0.00116882
0.8
0.00116882
0.8
0.00116882
0.8
0.00116882
0.8
0.00116882
0.8
0.00116882
0.8
0.00116882
0.8
0.00116882
0.8
0.00116882
0.8
0.00116882
0.8
0.00116882
0.8
0.00116882
0.8
0.00116882
0.8
0.00116882
0.8
0.00116882
0.8
0.00116882
0.8
0.00116882
0.8
0.00116882
0.8
0.00116882
0.8
0.00116882
0.8
0.00116882
0.8
0.00116882
0.8
0.00116882
0.8
0.00116882
0.8
0.00116882
0.8
0.00116882
0.8
0.00116882
0.8
0.00116882
0.8
0.00116882
0.8
0.00116882
0.8
0.00116882
0.8
0.00116882
0.8
0.00116882
0.8
0.00116882
0.8
0.00116882
0.8
0.00116882
0.8
0.00116882
0.8
0.00116882
0.8
0.00116882
0.8
0.00116882
0.8
0.00116882
0.8
0.00116882
0.8
0.00116882
0.8
0.00116882
0.8
0.00116882
0.8
0.00116882
0.8
0.00116882
0.8
0.00116882
0.8
0.00116883
0.8
0.00116883
0.8
0.00116883
0.8
0.00116883
0.8
0.00116883
0.8
0.00116883
0.8
0.00116883
0.8
0.00116883
0.8
0.00116883
0.8
0.00116883
0.8
0.00116882
0.8
0.00116882
0.8
0.00116882
0.8
0.00116882
0.8
0.00116882
0.8
0.00116882
0.8
0.00116882
0.8
0.00116882
0.8
0.00116885
0.8
0.00116894
0.799999
0.00116919
0.799996
0.00117006
0.799986
0.00117205
0.799964
0.00117916
0.799894
0.799818
0.000732912
0.787439
0.000860918
0.794386
0.000911489
0.798151
0.000929744
0.79955
0.000928725
0.800253
0.000925832
0.8003
0.000920125
0.800323
0.000916684
0.800209
0.00091351
0.800158
0.00091188
0.800088
0.000910601
0.800059
0.000910008
0.80003
0.000909562
0.80002
0.000909374
0.800009
0.000909228
0.800006
0.000909173
0.800003
0.000909127
0.800002
0.000909111
0.800001
0.000909097
0.800001
0.000909093
0.8
0.000909088
0.8
0.000909087
0.8
0.000909086
0.8
0.000909085
0.8
0.000909085
0.8
0.000909085
0.8
0.000909085
0.8
0.000909084
0.8
0.000909085
0.8
0.000909085
0.8
0.000909085
0.8
0.000909085
0.8
0.000909085
0.8
0.000909085
0.8
0.000909085
0.8
0.000909085
0.8
0.000909085
0.8
0.000909085
0.8
0.000909085
0.8
0.000909085
0.8
0.000909086
0.8
0.000909085
0.8
0.000909085
0.8
0.000909085
0.8
0.000909085
0.8
0.000909085
0.8
0.000909085
0.8
0.000909085
0.8
0.000909085
0.8
0.000909085
0.8
0.000909085
0.8
0.000909085
0.8
0.000909085
0.8
0.000909085
0.8
0.000909086
0.8
0.000909086
0.8
0.000909086
0.8
0.000909086
0.8
0.000909086
0.8
0.000909085
0.8
0.000909085
0.8
0.000909085
0.8
0.000909085
0.8
0.000909086
0.8
0.000909086
0.8
0.000909086
0.8
0.000909086
0.8
0.000909086
0.8
0.000909086
0.8
0.000909086
0.8
0.000909086
0.8
0.000909086
0.8
0.000909086
0.8
0.000909086
0.8
0.000909086
0.8
0.000909086
0.8
0.000909086
0.8
0.000909086
0.8
0.000909086
0.8
0.000909086
0.8
0.000909086
0.8
0.000909086
0.8
0.000909086
0.8
0.000909086
0.8
0.000909086
0.8
0.000909086
0.8
0.000909086
0.8
0.000909085
0.8
0.000909085
0.8
0.000909084
0.8
0.000909083
0.8
0.000909082
0.8
0.000909086
0.8
0.000909104
0.8
0.000909178
0.799999
0.000909381
0.799996
0.000910084
0.799985
0.000911677
0.799962
0.000917374
0.799888
0.799807
0.000522223
0.787268
0.000614203
0.794294
0.000650676
0.798114
0.000663935
0.799537
0.000663303
0.800253
0.0006613
0.800302
0.000657235
0.800327
0.000654786
0.800212
0.000652516
0.80016
0.000651351
0.800089
0.000650433
0.80006
0.000650008
0.800031
0.000649688
0.80002
0.000649553
0.80001
0.000649449
0.800006
0.000649409
0.800003
0.000649376
0.800002
0.000649365
0.800001
0.000649354
0.800001
0.000649351
0.8
0.000649348
0.8
0.000649347
0.8
0.000649346
0.8
0.000649346
0.8
0.000649346
0.8
0.000649346
0.8
0.000649346
0.8
0.000649345
0.8
0.000649346
0.8
0.000649346
0.8
0.000649346
0.8
0.000649346
0.8
0.000649346
0.8
0.000649346
0.8
0.000649346
0.8
0.000649346
0.8
0.000649346
0.8
0.000649346
0.8
0.000649346
0.8
0.000649346
0.8
0.000649347
0.8
0.000649346
0.8
0.000649346
0.8
0.000649346
0.8
0.000649346
0.8
0.000649346
0.8
0.000649346
0.8
0.000649346
0.8
0.000649346
0.8
0.000649346
0.8
0.000649346
0.8
0.000649346
0.8
0.000649346
0.8
0.000649346
0.8
0.000649347
0.8
0.000649347
0.8
0.000649347
0.8
0.000649347
0.8
0.000649347
0.8
0.000649346
0.8
0.000649346
0.8
0.000649346
0.8
0.000649346
0.8
0.000649347
0.8
0.000649347
0.8
0.000649347
0.8
0.000649347
0.8
0.000649347
0.8
0.000649347
0.8
0.000649347
0.8
0.000649347
0.8
0.000649347
0.8
0.000649347
0.8
0.000649347
0.8
0.000649347
0.8
0.000649347
0.8
0.000649347
0.8
0.000649347
0.8
0.000649347
0.8
0.000649347
0.8
0.000649347
0.8
0.000649347
0.8
0.000649347
0.8
0.000649347
0.8
0.000649347
0.8
0.000649347
0.8
0.000649347
0.8
0.000649346
0.8
0.000649346
0.8
0.000649345
0.8
0.000649345
0.8
0.000649344
0.8
0.000649347
0.8
0.000649361
0.8
0.000649415
0.799999
0.000649564
0.799996
0.00065008
0.799985
0.000651244
0.799961
0.000655404
0.799884
0.799799
0.000312823
0.787165
0.000368228
0.794239
0.000390251
0.798092
0.000398294
0.799529
0.000397954
0.800254
0.000396776
0.800304
0.000394342
0.80033
0.000392876
0.800213
0.000391512
0.800161
0.000390814
0.80009
0.00039026
0.800061
0.000390005
0.800031
0.000389813
0.80002
0.000389732
0.80001