/*--------------------------------*- C++ -*----------------------------------*\
| =========                 |                                                 |
| \\      /  F ield         | OpenFOAM: The Open Source CFD Toolbox           |
|  \\    /   O peration     | Version:  v1906                                 |
|   \\  /    A nd           | Web:      www.OpenFOAM.com                      |
|    \\/     M anipulation  |                                                 |
\*---------------------------------------------------------------------------*/
FoamFile
{
    version     2.0;
    format      ascii;
    class       volVectorField;
    location    "0.5";
    object      U;
}
// * * * * * * * * * * * * * * * * * * * * * * * * * * * * * * * * * * * * * //

dimensions      [0 1 -1 0 0 0 0];


internalField   nonuniform List<vector> 
4000
(
(0.427096 0.0731986 0)
(0.418175 0.00685143 0)
(0.375401 -0.000518467 0)
(0.378965 -0.00106368 0)
(0.377653 -0.00130236 0)
(0.378783 -0.00120312 0)
(0.378484 -0.00119568 0)
(0.37838 -0.00117223 0)
(0.378049 -0.00117604 0)
(0.377806 -0.00117775 0)
(0.377572 -0.00118331 0)
(0.377396 -0.00118737 0)
(0.377253 -0.0011915 0)
(0.377146 -0.00119473 0)
(0.377065 -0.00119733 0)
(0.377006 -0.00119936 0)
(0.376964 -0.00120098 0)
(0.376934 -0.00120211 0)
(0.376913 -0.00120291 0)
(0.376899 -0.00120351 0)
(0.376889 -0.00120392 0)
(0.376883 -0.00120422 0)
(0.376879 -0.00120439 0)
(0.376876 -0.00120449 0)
(0.376875 -0.00120458 0)
(0.376873 -0.00120466 0)
(0.376873 -0.00120469 0)
(0.376872 -0.00120468 0)
(0.376872 -0.0012047 0)
(0.376872 -0.00120472 0)
(0.376872 -0.00120472 0)
(0.376872 -0.00120472 0)
(0.376872 -0.00120472 0)
(0.376872 -0.00120473 0)
(0.376872 -0.00120473 0)
(0.376872 -0.00120473 0)
(0.376872 -0.00120473 0)
(0.376871 -0.00120473 0)
(0.376871 -0.00120473 0)
(0.376871 -0.00120474 0)
(0.376871 -0.00120473 0)
(0.376871 -0.00120473 0)
(0.376871 -0.00120473 0)
(0.376871 -0.00120474 0)
(0.376871 -0.00120473 0)
(0.376871 -0.00120473 0)
(0.376872 -0.00120473 0)
(0.376872 -0.00120473 0)
(0.376872 -0.00120473 0)
(0.376871 -0.00120473 0)
(0.376871 -0.00120472 0)
(0.376871 -0.00120473 0)
(0.376871 -0.00120473 0)
(0.376871 -0.00120473 0)
(0.376871 -0.00120472 0)
(0.376871 -0.00120473 0)
(0.376871 -0.00120473 0)
(0.376871 -0.00120474 0)
(0.376871 -0.00120473 0)
(0.376871 -0.00120473 0)
(0.376872 -0.00120473 0)
(0.376872 -0.00120474 0)
(0.376872 -0.00120473 0)
(0.376872 -0.00120473 0)
(0.376872 -0.00120474 0)
(0.376872 -0.00120474 0)
(0.376872 -0.00120474 0)
(0.376872 -0.00120474 0)
(0.376872 -0.00120473 0)
(0.376872 -0.00120474 0)
(0.376872 -0.00120473 0)
(0.376872 -0.00120473 0)
(0.376872 -0.00120473 0)
(0.376872 -0.00120472 0)
(0.376872 -0.00120472 0)
(0.376872 -0.00120472 0)
(0.376872 -0.00120472 0)
(0.376872 -0.00120472 0)
(0.376872 -0.00120472 0)
(0.376872 -0.00120473 0)
(0.376872 -0.00120473 0)
(0.376872 -0.00120473 0)
(0.376872 -0.00120473 0)
(0.376872 -0.00120473 0)
(0.376871 -0.00120471 0)
(0.376871 -0.0012047 0)
(0.376871 -0.00120468 0)
(0.37687 -0.00120464 0)
(0.376869 -0.00120459 0)
(0.376868 -0.00120452 0)
(0.376866 -0.00120442 0)
(0.376862 -0.00120432 0)
(0.376858 -0.00120426 0)
(0.376853 -0.00120438 0)
(0.376851 -0.00120474 0)
(0.376846 -0.00120465 0)
(0.376845 -0.00120159 0)
(0.376716 -0.00118532 0)
(0.376556 -0.00116656 0)
(0.376218 -0.00130274 0)
(0.789192 0.171958 0)
(0.802641 0.0240895 0)
(0.735301 0.00286401 0)
(0.741137 0.000114126 0)
(0.7381 -0.00073983 0)
(0.740144 -0.000429775 0)
(0.739604 -0.000370502 0)
(0.73948 -0.000282796 0)
(0.738916 -0.000288991 0)
(0.738506 -0.000295427 0)
(0.738101 -0.000315662 0)
(0.737793 -0.000332257 0)
(0.737541 -0.000348759 0)
(0.737351 -0.000361915 0)
(0.737206 -0.000372755 0)
(0.7371 -0.00038117 0)
(0.737023 -0.000387794 0)
(0.736968 -0.00039257 0)
(0.73693 -0.000396013 0)
(0.736904 -0.00039858 0)
(0.736887 -0.000400351 0)
(0.736875 -0.000401527 0)
(0.736867 -0.000402262 0)
(0.736862 -0.000402787 0)
(0.736859 -0.000403197 0)
(0.736857 -0.000403446 0)
(0.736856 -0.000403568 0)
(0.736855 -0.000403609 0)
(0.736855 -0.000403673 0)
(0.736854 -0.000403749 0)
(0.736854 -0.000403762 0)
(0.736854 -0.000403779 0)
(0.736854 -0.000403775 0)
(0.736854 -0.000403792 0)
(0.736854 -0.000403799 0)
(0.736853 -0.000403815 0)
(0.736854 -0.000403817 0)
(0.736854 -0.000403804 0)
(0.736853 -0.000403789 0)
(0.736853 -0.00040382 0)
(0.736853 -0.000403805 0)
(0.736853 -0.000403798 0)
(0.736853 -0.000403803 0)
(0.736853 -0.000403823 0)
(0.736853 -0.000403803 0)
(0.736853 -0.00040379 0)
(0.736853 -0.000403785 0)
(0.736853 -0.000403802 0)
(0.736853 -0.000403794 0)
(0.736853 -0.000403794 0)
(0.736853 -0.000403789 0)
(0.736853 -0.000403798 0)
(0.736853 -0.000403798 0)
(0.736853 -0.000403806 0)
(0.736853 -0.00040379 0)
(0.736853 -0.000403798 0)
(0.736853 -0.000403799 0)
(0.736853 -0.000403809 0)
(0.736853 -0.000403808 0)
(0.736853 -0.000403808 0)
(0.736853 -0.000403813 0)
(0.736853 -0.000403828 0)
(0.736854 -0.000403824 0)
(0.736854 -0.000403831 0)
(0.736854 -0.000403829 0)
(0.736854 -0.00040384 0)
(0.736854 -0.000403835 0)
(0.736854 -0.000403836 0)
(0.736854 -0.000403815 0)
(0.736854 -0.000403822 0)
(0.736854 -0.000403808 0)
(0.736854 -0.000403806 0)
(0.736854 -0.000403792 0)
(0.736854 -0.000403781 0)
(0.736854 -0.000403778 0)
(0.736854 -0.000403778 0)
(0.736854 -0.000403774 0)
(0.736853 -0.000403775 0)
(0.736853 -0.000403779 0)
(0.736853 -0.0004038 0)
(0.736853 -0.000403798 0)
(0.736853 -0.000403796 0)
(0.736853 -0.000403793 0)
(0.736853 -0.000403792 0)
(0.736853 -0.000403741 0)
(0.736853 -0.00040368 0)
(0.736852 -0.000403599 0)
(0.736851 -0.000403461 0)
(0.736849 -0.000403241 0)
(0.736846 -0.000402957 0)
(0.736842 -0.000402568 0)
(0.736836 -0.000402148 0)
(0.736828 -0.000401802 0)
(0.736819 -0.000401953 0)
(0.736812 -0.000402367 0)
(0.736794 -0.000400143 0)
(0.736773 -0.000382375 0)
(0.736494 -0.000315479 0)
(0.736107 -0.000212059 0)
(0.734295 -0.000457051 0)
(0.938327 0.19526 0)
(0.975248 0.0389764 0)
(0.907053 0.00773532 0)
(0.91418 0.00123167 0)
(0.909957 -0.00037887 0)
(0.912368 6.43574e-05 0)
(0.9117 0.000222316 0)
(0.911635 0.000392141 0)
(0.911023 0.000392466 0)
(0.910595 0.000378247 0)
(0.910155 0.000337755 0)
(0.909821 0.000301839 0)
(0.909544 0.000267613 0)
(0.909334 0.000240318 0)
(0.909174 0.000217793 0)
(0.909055 0.00020037 0)
(0.908969 0.000186801 0)
(0.908908 0.000176801 0)
(0.908865 0.00016944 0)
(0.908836 0.000164111 0)
(0.908816 0.000160482 0)
(0.908802 0.000157963 0)
(0.908794 0.000156261 0)
(0.908788 0.00015512 0)
(0.908784 0.000154307 0)
(0.908782 0.000153833 0)
(0.908781 0.000153528 0)
(0.90878 0.000153355 0)
(0.908779 0.000153239 0)
(0.908779 0.000153132 0)
(0.908778 0.000153093 0)
(0.908778 0.000153039 0)
(0.908778 0.000153032 0)
(0.908778 0.000153001 0)
(0.908778 0.000152994 0)
(0.908778 0.000152967 0)
(0.908778 0.000152961 0)
(0.908778 0.000152968 0)
(0.908778 0.000153005 0)
(0.908778 0.000152975 0)
(0.908778 0.000152976 0)
(0.908778 0.000152985 0)
(0.908778 0.000152988 0)
(0.908778 0.000152972 0)
(0.908778 0.000153 0)
(0.908778 0.000153009 0)
(0.908778 0.000153021 0)
(0.908778 0.000153007 0)
(0.908778 0.000153018 0)
(0.908778 0.000153004 0)
(0.908778 0.000153006 0)
(0.908778 0.000153001 0)
(0.908778 0.000153008 0)
(0.908778 0.000152989 0)
(0.908778 0.000153 0)
(0.908778 0.000152995 0)
(0.908778 0.000153 0)
(0.908778 0.000152982 0)
(0.908778 0.000152974 0)
(0.908778 0.000152973 0)
(0.908778 0.000152969 0)
(0.908778 0.000152937 0)
(0.908778 0.000152938 0)
(0.908778 0.000152928 0)
(0.908778 0.00015293 0)
(0.908778 0.000152915 0)
(0.908778 0.000152935 0)
(0.908778 0.000152934 0)
(0.908779 0.000152958 0)
(0.908779 0.000152959 0)
(0.908779 0.000152986 0)
(0.908779 0.000152992 0)
(0.908779 0.000153014 0)
(0.908779 0.000153036 0)
(0.908778 0.000153055 0)
(0.908778 0.000153054 0)
(0.908778 0.000153059 0)
(0.908778 0.000153052 0)
(0.908778 0.00015305 0)
(0.908778 0.000153016 0)
(0.908778 0.000153009 0)
(0.908778 0.000153007 0)
(0.908778 0.000153022 0)
(0.908778 0.000153037 0)
(0.908777 0.000153121 0)
(0.908777 0.000153247 0)
(0.908776 0.000153435 0)
(0.908775 0.000153724 0)
(0.908773 0.000154173 0)
(0.90877 0.000154773 0)
(0.908765 0.000155591 0)
(0.908758 0.000156492 0)
(0.908749 0.000157349 0)
(0.908738 0.000157443 0)
(0.908727 0.000158036 0)
(0.908697 0.00016514 0)
(0.908655 0.000210869 0)
(0.908287 0.000361144 0)
(0.907757 0.00065508 0)
(0.904639 0.000608521 0)
(0.99636 0.186967 0)
(1.05016 0.048763 0)
(0.988546 0.0121413 0)
(0.996717 0.00181283 0)
(0.991743 -0.000469839 0)
(0.994295 1.22655e-05 0)
(0.993547 0.000282534 0)
(0.993568 0.000529723 0)
(0.992985 0.000543216 0)
(0.992604 0.000521613 0)
(0.992191 0.000462443 0)
(0.991882 0.000407893 0)
(0.99162 0.000356214 0)
(0.991422 0.00031368 0)
(0.991269 0.00027866 0)
(0.991156 0.000251952 0)
(0.991073 0.000231148 0)
(0.991014 0.000215667 0)
(0.990973 0.000204291 0)
(0.990944 0.000196108 0)
(0.990924 0.000190548 0)
(0.990911 0.000186626 0)
(0.990903 0.000183906 0)
(0.990897 0.000182138 0)
(0.990894 0.00018091 0)
(0.990891 0.000180177 0)
(0.99089 0.000179692 0)
(0.990889 0.000179384 0)
(0.990889 0.000179192 0)
(0.990888 0.000179058 0)
(0.990888 0.000178999 0)
(0.990888 0.000178908 0)
(0.990888 0.000178888 0)
(0.990888 0.000178846 0)
(0.990888 0.000178833 0)
(0.990888 0.000178795 0)
(0.990888 0.000178796 0)
(0.990888 0.000178797 0)
(0.990888 0.000178846 0)
(0.990888 0.000178823 0)
(0.990888 0.000178811 0)
(0.990888 0.000178821 0)
(0.990888 0.000178829 0)
(0.990888 0.000178815 0)
(0.990888 0.000178853 0)
(0.990888 0.000178868 0)
(0.990888 0.000178885 0)
(0.990888 0.000178867 0)
(0.990888 0.000178881 0)
(0.990888 0.000178862 0)
(0.990887 0.000178858 0)
(0.990887 0.000178849 0)
(0.990887 0.000178863 0)
(0.990887 0.000178841 0)
(0.990887 0.000178845 0)
(0.990887 0.000178837 0)
(0.990887 0.000178845 0)
(0.990887 0.000178828 0)
(0.990887 0.000178811 0)
(0.990887 0.000178801 0)
(0.990887 0.000178796 0)
(0.990888 0.000178756 0)
(0.990888 0.000178746 0)
(0.990888 0.000178731 0)
(0.990888 0.000178738 0)
(0.990888 0.000178721 0)
(0.990888 0.000178745 0)
(0.990888 0.00017875 0)
(0.990888 0.000178779 0)
(0.990888 0.000178784 0)
(0.990888 0.000178821 0)
(0.990888 0.000178839 0)
(0.990888 0.000178869 0)
(0.990888 0.000178901 0)
(0.990888 0.000178936 0)
(0.990888 0.00017894 0)
(0.990888 0.000178944 0)
(0.990888 0.000178931 0)
(0.990887 0.000178928 0)
(0.990887 0.000178884 0)
(0.990887 0.000178864 0)
(0.990887 0.000178857 0)
(0.990887 0.000178883 0)
(0.990887 0.000178916 0)
(0.990887 0.000179035 0)
(0.990887 0.000179231 0)
(0.990886 0.000179533 0)
(0.990885 0.000179986 0)
(0.990883 0.000180678 0)
(0.99088 0.000181616 0)
(0.990875 0.000182895 0)
(0.990868 0.000184341 0)
(0.990859 0.000185868 0)
(0.990847 0.000186571 0)
(0.990833 0.000189295 0)
(0.990794 0.000203257 0)
(0.990739 0.000284585 0)
(0.990328 0.000532014 0)
(0.989743 0.00109851 0)
(0.985952 0.00141973 0)
(1.01572 0.170766 0)
(1.08011 0.0545673 0)
(1.02686 0.0155977 0)
(1.03593 0.00218075 0)
(1.03052 -0.000632098 0)
(1.03312 -0.000159827 0)
(1.03231 0.000215938 0)
(1.03242 0.000518928 0)
(1.0319 0.000547103 0)
(1.0316 0.000520263 0)
(1.03124 0.000448245 0)
(1.03098 0.000380136 0)
(1.03075 0.000315074 0)
(1.03058 0.000260235 0)
(1.03044 0.000214802 0)
(1.03034 0.000179465 0)
(1.03027 0.000151596 0)
(1.03022 0.000130575 0)
(1.03018 0.000115531 0)
(1.03015 0.000104673 0)
(1.03014 9.72753e-05 0)
(1.03012 9.20754e-05 0)
(1.03012 8.84171e-05 0)
(1.03011 8.60697e-05 0)
(1.03011 8.44713e-05 0)
(1.03011 8.34743e-05 0)
(1.0301 8.28073e-05 0)
(1.0301 8.23977e-05 0)
(1.0301 8.21436e-05 0)
(1.0301 8.19673e-05 0)
(1.0301 8.18939e-05 0)
(1.0301 8.17771e-05 0)
(1.0301 8.17416e-05 0)
(1.0301 8.16882e-05 0)
(1.0301 8.16711e-05 0)
(1.0301 8.16211e-05 0)
(1.0301 8.16283e-05 0)
(1.0301 8.16295e-05 0)
(1.0301 8.16813e-05 0)
(1.0301 8.16621e-05 0)
(1.0301 8.16464e-05 0)
(1.0301 8.16579e-05 0)
(1.0301 8.16688e-05 0)
(1.0301 8.16554e-05 0)
(1.0301 8.17036e-05 0)
(1.0301 8.17273e-05 0)
(1.0301 8.17494e-05 0)
(1.0301 8.17259e-05 0)
(1.0301 8.17416e-05 0)
(1.0301 8.17228e-05 0)
(1.0301 8.17153e-05 0)
(1.0301 8.16989e-05 0)
(1.0301 8.17136e-05 0)
(1.0301 8.16892e-05 0)
(1.0301 8.16894e-05 0)
(1.0301 8.16775e-05 0)
(1.0301 8.16855e-05 0)
(1.0301 8.16685e-05 0)
(1.0301 8.16465e-05 0)
(1.0301 8.16287e-05 0)
(1.0301 8.16182e-05 0)
(1.0301 8.15693e-05 0)
(1.0301 8.15562e-05 0)
(1.0301 8.15371e-05 0)
(1.0301 8.1546e-05 0)
(1.0301 8.15298e-05 0)
(1.0301 8.15586e-05 0)
(1.0301 8.15668e-05 0)
(1.0301 8.16005e-05 0)
(1.0301 8.16099e-05 0)
(1.0301 8.16553e-05 0)
(1.0301 8.16866e-05 0)
(1.0301 8.17273e-05 0)
(1.0301 8.17677e-05 0)
(1.0301 8.18157e-05 0)
(1.0301 8.18292e-05 0)
(1.0301 8.18334e-05 0)
(1.0301 8.18125e-05 0)
(1.0301 8.18063e-05 0)
(1.0301 8.17562e-05 0)
(1.0301 8.17247e-05 0)
(1.0301 8.17107e-05 0)
(1.0301 8.17442e-05 0)
(1.0301 8.17966e-05 0)
(1.0301 8.19491e-05 0)
(1.0301 8.22089e-05 0)
(1.0301 8.26151e-05 0)
(1.0301 8.32197e-05 0)
(1.0301 8.41332e-05 0)
(1.0301 8.53811e-05 0)
(1.03009 8.7088e-05 0)
(1.03008 8.90684e-05 0)
(1.03008 9.13528e-05 0)
(1.03006 9.29883e-05 0)
(1.03005 9.87546e-05 0)
(1.03 0.000120811 0)
(1.02994 0.000241065 0)
(1.02953 0.000577478 0)
(1.02896 0.00144646 0)
(1.02509 0.00215394 0)
(1.01914 0.153267 0)
(1.08957 0.0576067 0)
(1.04455 0.0181567 0)
(1.05439 0.00250483 0)
(1.04878 -0.00071073 0)
(1.05136 -0.000280319 0)
(1.05052 0.000187544 0)
(1.05072 0.000531047 0)
(1.05027 0.000573496 0)
(1.05005 0.000542976 0)
(1.04976 0.000461388 0)
(1.04955 0.000382537 0)
(1.04937 0.000307396 0)
(1.04923 0.000244033 0)
(1.04912 0.000191218 0)
(1.04903 0.000149085 0)
(1.04897 0.000115743 0)
(1.04893 9.0497e-05 0)
(1.0489 7.2196e-05 0)
(1.04887 5.87828e-05 0)
(1.04886 4.95341e-05 0)
(1.04885 4.3213e-05 0)
(1.04884 3.87243e-05 0)
(1.04884 3.58586e-05 0)
(1.04884 3.39458e-05 0)
(1.04883 3.27285e-05 0)
(1.04883 3.1894e-05 0)
(1.04883 3.13929e-05 0)
(1.04883 3.10949e-05 0)
(1.04883 3.08799e-05 0)
(1.04883 3.07851e-05 0)
(1.04883 3.06487e-05 0)
(1.04883 3.05996e-05 0)
(1.04883 3.05387e-05 0)
(1.04883 3.05218e-05 0)
(1.04883 3.04606e-05 0)
(1.04883 3.04688e-05 0)
(1.04883 3.04749e-05 0)
(1.04883 3.05315e-05 0)
(1.04883 3.0514e-05 0)
(1.04883 3.04887e-05 0)
(1.04883 3.05025e-05 0)
(1.04883 3.05241e-05 0)
(1.04883 3.05121e-05 0)
(1.04883 3.05618e-05 0)
(1.04883 3.05936e-05 0)
(1.04883 3.06271e-05 0)
(1.04883 3.0602e-05 0)
(1.04883 3.06137e-05 0)
(1.04883 3.05941e-05 0)
(1.04883 3.05853e-05 0)
(1.04883 3.05634e-05 0)
(1.04883 3.05748e-05 0)
(1.04883 3.05466e-05 0)
(1.04883 3.05426e-05 0)
(1.04883 3.05282e-05 0)
(1.04883 3.05351e-05 0)
(1.04883 3.05185e-05 0)
(1.04883 3.04915e-05 0)
(1.04883 3.04669e-05 0)
(1.04883 3.04504e-05 0)
(1.04883 3.03955e-05 0)
(1.04883 3.03793e-05 0)
(1.04883 3.03573e-05 0)
(1.04883 3.03677e-05 0)
(1.04883 3.03527e-05 0)
(1.04883 3.03832e-05 0)
(1.04883 3.03938e-05 0)
(1.04883 3.04323e-05 0)
(1.04883 3.0446e-05 0)
(1.04883 3.04974e-05 0)
(1.04883 3.05417e-05 0)
(1.04883 3.05953e-05 0)
(1.04883 3.06444e-05 0)
(1.04883 3.0702e-05 0)
(1.04883 3.0725e-05 0)
(1.04883 3.07316e-05 0)
(1.04883 3.0704e-05 0)
(1.04883 3.06923e-05 0)
(1.04883 3.06365e-05 0)
(1.04883 3.05949e-05 0)
(1.04883 3.05735e-05 0)
(1.04883 3.06121e-05 0)
(1.04883 3.06806e-05 0)
(1.04883 3.0862e-05 0)
(1.04883 3.1177e-05 0)
(1.04883 3.16735e-05 0)
(1.04883 3.24088e-05 0)
(1.04883 3.35111e-05 0)
(1.04882 3.50232e-05 0)
(1.04882 3.71047e-05 0)
(1.04882 3.95909e-05 0)
(1.04881 4.27016e-05 0)
(1.0488 4.55276e-05 0)
(1.04878 5.50719e-05 0)
(1.04874 8.58828e-05 0)
(1.04867 0.00024197 0)
(1.04828 0.000656772 0)
(1.04778 0.00182284 0)
(1.04425 0.00286639 0)
(1.01649 0.136146 0)
(1.09002 0.0585745 0)
(1.05243 0.0198937 0)
(1.06293 0.0027778 0)
(1.05726 -0.000728155 0)
(1.0598 -0.000357584 0)
(1.05892 0.000183576 0)
(1.05921 0.000559162 0)
(1.05884 0.000614968 0)
(1.0587 0.000582174 0)
(1.05848 0.000493659 0)
(1.05833 0.000406419 0)
(1.05819 0.000323266 0)
(1.05808 0.000252859 0)
(1.058 0.000194169 0)
(1.05793 0.000147259 0)
(1.05789 0.000110329 0)
(1.05785 8.25027e-05 0)
(1.05783 6.17532e-05 0)
(1.05781 4.64466e-05 0)
(1.0578 3.58063e-05 0)
(1.05779 2.84554e-05 0)
(1.05778 2.31502e-05 0)
(1.05778 1.98265e-05 0)
(1.05778 1.76305e-05 0)
(1.05778 1.62427e-05 0)
(1.05778 1.52757e-05 0)
(1.05778 1.46868e-05 0)
(1.05778 1.43536e-05 0)
(1.05778 1.41084e-05 0)
(1.05778 1.3995e-05 0)
(1.05778 1.38439e-05 0)
(1.05778 1.37823e-05 0)
(1.05778 1.3713e-05 0)
(1.05778 1.37009e-05 0)
(1.05778 1.36345e-05 0)
(1.05778 1.36394e-05 0)
(1.05778 1.36465e-05 0)
(1.05778 1.37078e-05 0)
(1.05778 1.36957e-05 0)
(1.05778 1.36625e-05 0)
(1.05778 1.36724e-05 0)
(1.05778 1.37056e-05 0)
(1.05778 1.37001e-05 0)
(1.05778 1.37521e-05 0)
(1.05778 1.37873e-05 0)
(1.05778 1.38317e-05 0)
(1.05778 1.38085e-05 0)
(1.05778 1.38173e-05 0)
(1.05778 1.37943e-05 0)
(1.05778 1.37831e-05 0)
(1.05778 1.37569e-05 0)
(1.05778 1.37646e-05 0)
(1.05778 1.37317e-05 0)
(1.05778 1.37223e-05 0)
(1.05778 1.37069e-05 0)
(1.05778 1.37133e-05 0)
(1.05778 1.36957e-05 0)
(1.05778 1.36636e-05 0)
(1.05778 1.36335e-05 0)
(1.05778 1.36136e-05 0)
(1.05778 1.35524e-05 0)
(1.05778 1.35342e-05 0)
(1.05778 1.35113e-05 0)
(1.05778 1.35235e-05 0)
(1.05778 1.3508e-05 0)
(1.05778 1.35398e-05 0)
(1.05778 1.35518e-05 0)
(1.05778 1.35947e-05 0)
(1.05778 1.36125e-05 0)
(1.05778 1.36696e-05 0)
(1.05778 1.37252e-05 0)
(1.05778 1.37932e-05 0)
(1.05778 1.38512e-05 0)
(1.05778 1.3917e-05 0)
(1.05778 1.39482e-05 0)
(1.05778 1.39595e-05 0)
(1.05778 1.39263e-05 0)
(1.05778 1.39082e-05 0)
(1.05778 1.38463e-05 0)
(1.05778 1.37962e-05 0)
(1.05778 1.37664e-05 0)
(1.05778 1.38075e-05 0)
(1.05778 1.38883e-05 0)
(1.05778 1.40935e-05 0)
(1.05778 1.44532e-05 0)
(1.05777 1.50239e-05 0)
(1.05777 1.58656e-05 0)
(1.05777 1.71191e-05 0)
(1.05777 1.88511e-05 0)
(1.05777 2.12636e-05 0)
(1.05776 2.42448e-05 0)
(1.05776 2.83015e-05 0)
(1.05775 3.25132e-05 0)
(1.05773 4.58907e-05 0)
(1.05769 8.45741e-05 0)
(1.05763 0.000270746 0)
(1.05729 0.000754696 0)
(1.05688 0.00218441 0)
(1.05392 0.00349668 0)
(1.01198 0.12013 0)
(1.08681 0.0579439 0)
(1.05567 0.0208822 0)
(1.06672 0.00297372 0)
(1.06109 -0.000718752 0)
(1.06357 -0.000413253 0)
(1.06267 0.000182353 0)
(1.06302 0.000580297 0)
(1.06273 0.000647795 0)
(1.06268 0.000614149 0)
(1.06252 0.000521636 0)
(1.06243 0.000428872 0)
(1.06233 0.00034025 0)
(1.06226 0.000264726 0)
(1.06221 0.000201681 0)
(1.06216 0.000151233 0)
(1.06213 0.000111484 0)
(1.0621 8.15444e-05 0)
(1.06209 5.92106e-05 0)
(1.06207 4.28213e-05 0)
(1.06206 3.14429e-05 0)
(1.06206 2.33807e-05 0)
(1.06205 1.75249e-05 0)
(1.06205 1.37922e-05 0)
(1.06205 1.13025e-05 0)
(1.06205 9.77293e-06 0)
(1.06205 8.71181e-06 0)
(1.06205 8.05098e-06 0)
(1.06205 7.68494e-06 0)
(1.06205 7.41533e-06 0)
(1.06205 7.28856e-06 0)
(1.06205 7.12931e-06 0)
(1.06205 7.05912e-06 0)
(1.06205 6.98056e-06 0)
(1.06205 6.97229e-06 0)
(1.06205 6.9057e-06 0)
(1.06205 6.90806e-06 0)
(1.06205 6.91372e-06 0)
(1.06205 6.97604e-06 0)
(1.06205 6.97076e-06 0)
(1.06205 6.93436e-06 0)
(1.06205 6.93692e-06 0)
(1.06205 6.97932e-06 0)
(1.06205 6.98372e-06 0)
(1.06205 7.04022e-06 0)
(1.06205 7.07612e-06 0)
(1.06205 7.12889e-06 0)
(1.06205 7.10878e-06 0)
(1.06205 7.11717e-06 0)
(1.06205 7.0908e-06 0)
(1.06205 7.07464e-06 0)
(1.06205 7.04426e-06 0)
(1.06205 7.04983e-06 0)
(1.06205 7.01286e-06 0)
(1.06205 6.99673e-06 0)
(1.06205 6.97976e-06 0)
(1.06205 6.98629e-06 0)
(1.06205 6.96778e-06 0)
(1.06205 6.92981e-06 0)
(1.06205 6.89358e-06 0)
(1.06205 6.87285e-06 0)
(1.06205 6.80749e-06 0)
(1.06205 6.78662e-06 0)
(1.06205 6.76309e-06 0)
(1.06205 6.77815e-06 0)
(1.06205 6.76122e-06 0)
(1.06205 6.79253e-06 0)
(1.06205 6.80525e-06 0)
(1.06205 6.85247e-06 0)
(1.06205 6.87449e-06 0)
(1.06205 6.93722e-06 0)
(1.06205 7.00274e-06 0)
(1.06205 7.08509e-06 0)
(1.06205 7.15297e-06 0)
(1.06205 7.22596e-06 0)
(1.06205 7.26367e-06 0)
(1.06205 7.28056e-06 0)
(1.06205 7.24335e-06 0)
(1.06205 7.21818e-06 0)
(1.06205 7.14948e-06 0)
(1.06205 7.09134e-06 0)
(1.06205 7.05272e-06 0)
(1.06205 7.09391e-06 0)
(1.06205 7.1834e-06 0)
(1.06205 7.40631e-06 0)
(1.06205 7.7997e-06 0)
(1.06205 8.42721e-06 0)
(1.06205 9.35076e-06 0)
(1.06205 1.07266e-05 0)
(1.06204 1.26569e-05 0)
(1.06204 1.5401e-05 0)
(1.06204 1.88236e-05 0)
(1.06203 2.3674e-05 0)
(1.06203 2.91962e-05 0)
(1.06201 4.59356e-05 0)
(1.06197 9.10348e-05 0)
(1.06192 0.000303211 0)
(1.06164 0.000841888 0)
(1.06135 0.00248341 0)
(1.05909 0.00399523 0)
(1.00731 0.105509 0)
(1.08238 0.0560866 0)
(1.05674 0.0212101 0)
(1.06827 0.00308614 0)
(1.06272 -0.000696161 0)
(1.06513 -0.000453885 0)
(1.0642 0.000177873 0)
(1.06463 0.000587743 0)
(1.0644 0.000664691 0)
(1.06443 0.000631441 0)
(1.06434 0.000537748 0)
(1.0643 0.000442364 0)
(1.06425 0.000350995 0)
(1.06421 0.000272652 0)
(1.06418 0.000207087 0)
(1.06416 0.000154483 0)
(1.06414 0.000112893 0)
(1.06412 8.15028e-05 0)
(1.06411 5.81144e-05 0)
(1.0641 4.09587e-05 0)
(1.0641 2.90639e-05 0)
(1.06409 2.06648e-05 0)
(1.06409 1.46034e-05 0)
(1.06409 1.06376e-05 0)
(1.06409 7.96374e-06 0)
(1.06409 6.29737e-06 0)
(1.06409 5.1545e-06 0)
(1.06409 4.44196e-06 0)
(1.06409 4.04579e-06 0)
(1.06409 3.7552e-06 0)
(1.06409 3.62106e-06 0)
(1.06409 3.46237e-06 0)
(1.06409 3.38753e-06 0)
(1.06409 3.29856e-06 0)
(1.06409 3.29171e-06 0)
(1.06409 3.2285e-06 0)
(1.06409 3.23009e-06 0)
(1.06409 3.23422e-06 0)
(1.06409 3.29261e-06 0)
(1.06409 3.29285e-06 0)
(1.06409 3.25832e-06 0)
(1.06409 3.25432e-06 0)
(1.06409 3.30109e-06 0)
(1.06409 3.31589e-06 0)
(1.06409 3.37924e-06 0)
(1.06409 3.41643e-06 0)
(1.06409 3.47437e-06 0)
(1.06409 3.45672e-06 0)
(1.06409 3.46618e-06 0)
(1.06409 3.43925e-06 0)
(1.06409 3.41703e-06 0)
(1.06409 3.38115e-06 0)
(1.06409 3.3851e-06 0)
(1.06409 3.34655e-06 0)
(1.06409 3.32338e-06 0)
(1.06409 3.3032e-06 0)
(1.06409 3.30849e-06 0)
(1.06409 3.28987e-06 0)
(1.06409 3.24599e-06 0)
(1.06409 3.20261e-06 0)
(1.06409 3.18187e-06 0)
(1.06409 3.11609e-06 0)
(1.06409 3.09225e-06 0)
(1.06409 3.06705e-06 0)
(1.06409 3.08479e-06 0)
(1.06409 3.06724e-06 0)
(1.06409 3.09585e-06 0)
(1.06409 3.10865e-06 0)
(1.06409 3.15972e-06 0)
(1.06409 3.1871e-06 0)
(1.06409 3.25531e-06 0)
(1.06409 3.33001e-06 0)
(1.06409 3.42531e-06 0)
(1.06409 3.50353e-06 0)
(1.06409 3.58304e-06 0)
(1.06409 3.62624e-06 0)
(1.06409 3.64818e-06 0)
(1.06409 3.60849e-06 0)
(1.06409 3.57602e-06 0)
(1.06409 3.50031e-06 0)
(1.06409 3.43392e-06 0)
(1.06409 3.38603e-06 0)
(1.06409 3.42474e-06 0)
(1.06409 3.51974e-06 0)
(1.06409 3.75393e-06 0)
(1.06409 4.16966e-06 0)
(1.06409 4.83936e-06 0)
(1.06409 5.82904e-06 0)
(1.06409 7.32436e-06 0)
(1.06409 9.39514e-06 0)
(1.06408 1.23398e-05 0)
(1.06408 1.60481e-05 0)
(1.06408 2.14273e-05 0)
(1.06407 2.80513e-05 0)
(1.06406 4.77914e-05 0)
(1.06403 9.83207e-05 0)
(1.06399 0.000330595 0)
(1.06379 0.000906807 0)
(1.06361 0.00269962 0)
(1.06211 0.0043439 0)
(1.00311 0.0922708 0)
(1.07781 0.0532863 0)
(1.05682 0.0209677 0)
(1.06876 0.00311783 0)
(1.06334 -0.000664566 0)
(1.06565 -0.000480187 0)
(1.06471 0.000169644 0)
(1.06519 0.000581521 0)
(1.06503 0.000665343 0)
(1.06512 0.000633471 0)
(1.06509 0.000541064 0)
(1.06511 0.000445705 0)
(1.0651 0.000354114 0)
(1.0651 0.000275169 0)
(1.06509 0.00020892 0)
(1.06508 0.000155621 0)
(1.06508 0.000113341 0)
(1.06507 8.13513e-05 0)
(1.06507 5.74887e-05 0)
(1.06507 3.99421e-05 0)
(1.06507 2.77596e-05 0)
(1.06506 1.91837e-05 0)
(1.06506 1.29973e-05 0)
(1.06506 8.98539e-06 0)
(1.06506 6.29351e-06 0)
(1.06506 4.56159e-06 0)
(1.06506 3.37613e-06 0)
(1.06506 2.62228e-06 0)
(1.06506 2.19939e-06 0)
(1.06506 1.89131e-06 0)
(1.06506 1.75268e-06 0)
(1.06506 1.60186e-06 0)
(1.06506 1.52717e-06 0)
(1.06506 1.42797e-06 0)
(1.06506 1.42004e-06 0)
(1.06506 1.36262e-06 0)
(1.06506 1.36375e-06 0)
(1.06506 1.36766e-06 0)
(1.06506 1.41973e-06 0)
(1.06506 1.42239e-06 0)
(1.06506 1.39138e-06 0)
(1.06506 1.3842e-06 0)
(1.06506 1.43189e-06 0)
(1.06506 1.45556e-06 0)
(1.06506 1.52577e-06 0)
(1.06506 1.56623e-06 0)
(1.06506 1.62793e-06 0)
(1.06506 1.61197e-06 0)
(1.06506 1.62166e-06 0)
(1.06506 1.59771e-06 0)
(1.06506 1.57067e-06 0)
(1.06506 1.52801e-06 0)
(1.06506 1.52935e-06 0)
(1.06506 1.49191e-06 0)
(1.06506 1.46289e-06 0)
(1.06506 1.43762e-06 0)
(1.06506 1.43857e-06 0)
(1.06506 1.42053e-06 0)
(1.06506 1.3718e-06 0)
(1.06506 1.32094e-06 0)
(1.06506 1.29946e-06 0)
(1.06506 1.23702e-06 0)
(1.06506 1.21113e-06 0)
(1.06506 1.18294e-06 0)
(1.06506 1.20158e-06 0)
(1.06506 1.18498e-06 0)
(1.06506 1.20954e-06 0)
(1.06506 1.22158e-06 0)
(1.06506 1.27574e-06 0)
(1.06506 1.31005e-06 0)
(1.06506 1.38354e-06 0)
(1.06506 1.46715e-06 0)
(1.06506 1.57321e-06 0)
(1.06506 1.66179e-06 0)
(1.06506 1.74695e-06 0)
(1.06506 1.79539e-06 0)
(1.06506 1.82125e-06 0)
(1.06506 1.78015e-06 0)
(1.06506 1.74028e-06 0)
(1.06506 1.65806e-06 0)
(1.06506 1.583e-06 0)
(1.06506 1.52547e-06 0)
(1.06506 1.55899e-06 0)
(1.06506 1.65639e-06 0)
(1.06506 1.89508e-06 0)
(1.06506 2.32444e-06 0)
(1.06506 3.03324e-06 0)
(1.06506 4.06904e-06 0)
(1.06506 5.61198e-06 0)
(1.06506 7.71834e-06 0)
(1.06506 1.06983e-05 0)
(1.06506 1.45642e-05 0)
(1.06506 2.04008e-05 0)
(1.06505 2.79901e-05 0)
(1.06504 5.02385e-05 0)
(1.06502 0.000104762 0)
(1.06499 0.000349914 0)
(1.06489 0.000946052 0)
(1.06481 0.00282713 0)
(1.06409 0.00454073 0)
(0.999517 0.0802739 0)
(1.07354 0.0497546 0)
(1.05648 0.0202376 0)
(1.06876 0.00307327 0)
(1.06348 -0.000625769 0)
(1.0657 -0.000492143 0)
(1.06474 0.000158017 0)
(1.06526 0.000562627 0)
(1.06516 0.000650532 0)
(1.06533 0.000620773 0)
(1.06535 0.000531759 0)
(1.06542 0.000438775 0)
(1.06545 0.000349236 0)
(1.06548 0.000271704 0)
(1.06549 0.000206468 0)
(1.06551 0.000153865 0)
(1.06551 0.00011201 0)
(1.06552 8.02718e-05 0)
(1.06552 5.65584e-05 0)
(1.06552 3.90777e-05 0)
(1.06552 2.69047e-05 0)
(1.06553 1.83354e-05 0)
(1.06553 1.2122e-05 0)
(1.06553 8.12011e-06 0)
(1.06553 5.46561e-06 0)
(1.06553 3.7583e-06 0)
(1.06553 2.58835e-06 0)
(1.06553 1.82538e-06 0)
(1.06553 1.39297e-06 0)
(1.06553 1.0701e-06 0)
(1.06553 9.27134e-07 0)
(1.06553 7.87141e-07 0)
(1.06553 7.17916e-07 0)
(1.06553 6.10817e-07 0)
(1.06553 5.99605e-07 0)
(1.06553 5.50009e-07 0)
(1.06553 5.50327e-07 0)
(1.06553 5.54453e-07 0)
(1.06553 6.00181e-07 0)
(1.06553 6.02755e-07 0)
(1.06553 5.74225e-07 0)
(1.06553 5.66519e-07 0)
(1.06553 6.13646e-07 0)
(1.06553 6.44242e-07 0)
(1.06553 7.19679e-07 0)
(1.06553 7.64718e-07 0)
(1.06553 8.30418e-07 0)
(1.06553 8.16845e-07 0)
(1.06553 8.24748e-07 0)
(1.06553 8.05889e-07 0)
(1.06553 7.7665e-07 0)
(1.06553 7.27106e-07 0)
(1.06553 7.23889e-07 0)
(1.06553 6.89142e-07 0)
(1.06553 6.56347e-07 0)
(1.06553 6.25096e-07 0)
(1.06553 6.18154e-07 0)
(1.06553 6.00383e-07 0)
(1.06553 5.48713e-07 0)
(1.06553 4.9151e-07 0)
(1.06553 4.67968e-07 0)
(1.06553 4.11253e-07 0)
(1.06553 3.85378e-07 0)
(1.06553 3.53743e-07 0)
(1.06553 3.70924e-07 0)
(1.06553 3.56495e-07 0)
(1.06553 3.77067e-07 0)
(1.06553 3.87545e-07 0)
(1.06553 4.4355e-07 0)
(1.06553 4.85438e-07 0)
(1.06553 5.64284e-07 0)
(1.06553 6.56597e-07 0)
(1.06553 7.71277e-07 0)
(1.06553 8.70458e-07 0)
(1.06553 9.61e-07 0)
(1.06553 1.01571e-06 0)
(1.06553 1.04442e-06 0)
(1.06553 1.00191e-06 0)
(1.06553 9.54209e-07 0)
(1.06553 8.65366e-07 0)
(1.06553 7.81178e-07 0)
(1.06553 7.13542e-07 0)
(1.06553 7.39057e-07 0)
(1.06553 8.3539e-07 0)
(1.06553 1.07296e-06 0)
(1.06553 1.51354e-06 0)
(1.06553 2.23283e-06 0)
(1.06553 3.26895e-06 0)
(1.06553 4.77415e-06 0)
(1.06553 6.855e-06 0)
(1.06553 9.83454e-06 0)
(1.06553 1.37882e-05 0)
(1.06553 1.9959e-05 0)
(1.06553 2.8289e-05 0)
(1.06552 5.23062e-05 0)
(1.06551 0.000109051 0)
(1.06549 0.000359471 0)
(1.06548 0.000958331 0)
(1.06551 0.0028656 0)
(1.06553 0.00459044 0)
(0.996542 0.0693462 0)
(1.06976 0.0456516 0)
(1.05597 0.0190919 0)
(1.06857 0.00295735 0)
(1.06343 -0.000580671 0)
(1.06555 -0.000489769 0)
(1.06457 0.000143632 0)
(1.06513 0.000532235 0)
(1.06508 0.000621301 0)
(1.0653 0.000594177 0)
(1.06538 0.000510352 0)
(1.06549 0.00042182 0)
(1.06556 0.000336365 0)
(1.06562 0.000262071 0)
(1.06566 0.000199405 0)
(1.06569 0.00014877 0)
(1.06571 0.000108375 0)
(1.06572 7.76776e-05 0)
(1.06573 5.47125e-05 0)
(1.06574 3.77527e-05 0)
(1.06574 2.59034e-05 0)
(1.06574 1.75537e-05 0)
(1.06575 1.14657e-05 0)
(1.06575 7.54724e-06 0)
(1.06575 4.97231e-06 0)
(1.06575 3.32152e-06 0)
(1.06575 2.18975e-06 0)
(1.06575 1.45105e-06 0)
(1.06575 1.03422e-06 0)
(1.06575 7.15585e-07 0)
(1.06575 5.6736e-07 0)
(1.06575 4.36786e-07 0)
(1.06575 3.77457e-07 0)
(1.06575 2.67293e-07 0)
(1.06575 2.51229e-07 0)
(1.06575 2.10771e-07 0)
(1.06575 2.10723e-07 0)
(1.06575 2.14055e-07 0)
(1.06575 2.5433e-07 0)
(1.06575 2.55632e-07 0)
(1.06575 2.28065e-07 0)
(1.06575 2.20525e-07 0)
(1.06575 2.66449e-07 0)
(1.06575 3.02171e-07 0)
(1.06575 3.81192e-07 0)
(1.06575 4.30937e-07 0)
(1.06575 5.02086e-07 0)
(1.06575 4.93788e-07 0)
(1.06575 4.97691e-07 0)
(1.06575 4.84505e-07 0)
(1.06575 4.54597e-07 0)
(1.06575 3.99607e-07 0)
(1.06575 3.89941e-07 0)
(1.06575 3.57835e-07 0)
(1.06575 3.23173e-07 0)
(1.06575 2.85988e-07 0)
(1.06575 2.683e-07 0)
(1.06575 2.49301e-07 0)
(1.06575 1.96879e-07 0)
(1.06575 1.35332e-07 0)
(1.06575 1.09359e-07 0)
(1.06575 5.92102e-08 0)
(1.06575 3.57498e-08 0)
(1.06575 1.16454e-09 0)
(1.06575 1.62104e-08 0)
(1.06575 4.22918e-09 0)
(1.06575 2.25417e-08 0)
(1.06575 3.06163e-08 0)
(1.06575 8.70518e-08 0)
(1.06575 1.3435e-07 0)
(1.06575 2.18589e-07 0)
(1.06575 3.18898e-07 0)
(1.06575 4.41033e-07 0)
(1.06575 5.53332e-07 0)
(1.06575 6.50385e-07 0)
(1.06575 7.1095e-07 0)
(1.06575 7.42629e-07 0)
(1.06575 6.99387e-07 0)
(1.06575 6.42465e-07 0)
(1.06575 5.44779e-07 0)
(1.06575 4.49759e-07 0)
(1.06575 3.71192e-07 0)
(1.06575 3.85965e-07 0)
(1.06575 4.7748e-07 0)
(1.06575 7.11238e-07 0)
(1.06575 1.14528e-06 0)
(1.06575 1.83683e-06 0)
(1.06575 2.83712e-06 0)
(1.06575 4.29253e-06 0)
(1.06575 6.31809e-06 0)
(1.06575 9.24579e-06 0)
(1.06575 1.31907e-05 0)
(1.06575 1.95028e-05 0)
(1.06576 2.82629e-05 0)
(1.06575 5.3162e-05 0)
(1.06576 0.000110254 0)
(1.06575 0.000358363 0)
(1.06583 0.00094347 0)
(1.06596 0.00281793 0)
(1.06669 0.00450143 0)
(0.994113 0.0593214 0)
(1.06649 0.0411008 0)
(1.05543 0.0175942 0)
(1.0683 0.0027755 0)
(1.06331 -0.000529647 0)
(1.06533 -0.000473193 0)