/*--------------------------------*- C++ -*----------------------------------*\
| =========                 |                                                 |
| \\      /  F ield         | OpenFOAM: The Open Source CFD Toolbox           |
|  \\    /   O peration     | Version:  v1906                                 |
|   \\  /    A nd           | Web:      www.OpenFOAM.com                      |
|    \\/     M anipulation  |                                                 |
\*---------------------------------------------------------------------------*/
FoamFile
{
    version     2.0;
    format      ascii;
    class       volVectorField;
    location    "0.5";
    object      U;
}
// * * * * * * * * * * * * * * * * * * * * * * * * * * * * * * * * * * * * * //

dimensions      [0 1 -1 0 0 0 0];


internalField   nonuniform List<vector> 
4000
(
(0.537585 0.056387 0)
(0.552249 0.00359756 0)
(0.517055 -0.00175851 0)
(0.52284 -0.00199571 0)
(0.520969 -0.00212541 0)
(0.521857 -0.00203304 0)
(0.521206 -0.00204084 0)
(0.521015 -0.00203156 0)
(0.520636 -0.00204156 0)
(0.520397 -0.00204612 0)
(0.520169 -0.00205276 0)
(0.520001 -0.00205738 0)
(0.519862 -0.00206156 0)
(0.519758 -0.00206477 0)
(0.519678 -0.00206751 0)
(0.519619 -0.0020696 0)
(0.519576 -0.00207112 0)
(0.519546 -0.00207227 0)
(0.519524 -0.00207319 0)
(0.519509 -0.0020738 0)
(0.519499 -0.00207421 0)
(0.519493 -0.00207449 0)
(0.519488 -0.00207472 0)
(0.519485 -0.00207484 0)
(0.519484 -0.00207493 0)
(0.519482 -0.00207497 0)
(0.519482 -0.00207501 0)
(0.519481 -0.00207504 0)
(0.519481 -0.00207506 0)
(0.51948 -0.00207507 0)
(0.51948 -0.00207507 0)
(0.51948 -0.00207507 0)
(0.51948 -0.00207508 0)
(0.51948 -0.00207508 0)
(0.51948 -0.00207508 0)
(0.51948 -0.00207508 0)
(0.51948 -0.00207508 0)
(0.51948 -0.00207508 0)
(0.51948 -0.00207508 0)
(0.51948 -0.00207509 0)
(0.51948 -0.00207509 0)
(0.51948 -0.00207507 0)
(0.51948 -0.00207508 0)
(0.51948 -0.00207509 0)
(0.51948 -0.00207509 0)
(0.51948 -0.00207508 0)
(0.51948 -0.00207509 0)
(0.51948 -0.00207509 0)
(0.51948 -0.00207509 0)
(0.51948 -0.00207508 0)
(0.51948 -0.00207509 0)
(0.51948 -0.00207508 0)
(0.51948 -0.00207509 0)
(0.51948 -0.00207508 0)
(0.51948 -0.00207509 0)
(0.51948 -0.00207508 0)
(0.51948 -0.00207508 0)
(0.51948 -0.00207508 0)
(0.51948 -0.00207509 0)
(0.51948 -0.00207508 0)
(0.51948 -0.00207508 0)
(0.51948 -0.00207508 0)
(0.51948 -0.00207508 0)
(0.51948 -0.00207508 0)
(0.51948 -0.00207508 0)
(0.51948 -0.00207508 0)
(0.51948 -0.00207509 0)
(0.51948 -0.00207509 0)
(0.51948 -0.00207509 0)
(0.51948 -0.00207508 0)
(0.51948 -0.00207508 0)
(0.51948 -0.00207509 0)
(0.51948 -0.00207509 0)
(0.51948 -0.00207508 0)
(0.51948 -0.00207509 0)
(0.51948 -0.00207508 0)
(0.51948 -0.00207509 0)
(0.51948 -0.00207509 0)
(0.51948 -0.00207509 0)
(0.51948 -0.00207508 0)
(0.51948 -0.00207508 0)
(0.519479 -0.00207508 0)
(0.519479 -0.00207507 0)
(0.519479 -0.00207507 0)
(0.519479 -0.00207506 0)
(0.519479 -0.00207504 0)
(0.519478 -0.00207501 0)
(0.519478 -0.00207497 0)
(0.519476 -0.0020749 0)
(0.519474 -0.00207481 0)
(0.519471 -0.00207468 0)
(0.519467 -0.00207453 0)
(0.519462 -0.00207438 0)
(0.519454 -0.00207434 0)
(0.519447 -0.00207459 0)
(0.519439 -0.00207519 0)
(0.519445 -0.00207423 0)
(0.519362 -0.00206095 0)
(0.519228 -0.00202082 0)
(0.518635 -0.00215126 0)
(0.86501 0.128422 0)
(0.91168 0.0160148 0)
(0.861947 0.00100888 0)
(0.871286 -4.89805e-05 0)
(0.867817 -0.000485917 0)
(0.869344 -0.000172072 0)
(0.868322 -0.000184873 0)
(0.868096 -0.000148661 0)
(0.86753 -0.000180558 0)
(0.867187 -0.000196201 0)
(0.866847 -0.000219127 0)
(0.866597 -0.000235873 0)
(0.866389 -0.00025186 0)
(0.86623 -0.00026445 0)
(0.866108 -0.00027446 0)
(0.866018 -0.000282249 0)
(0.865951 -0.000288262 0)
(0.865904 -0.0002928 0)
(0.86587 -0.00029626 0)
(0.865847 -0.000298621 0)
(0.865831 -0.000300259 0)
(0.86582 -0.000301438 0)
(0.865813 -0.000302322 0)
(0.865809 -0.000302825 0)
(0.865806 -0.000303168 0)
(0.865804 -0.000303373 0)
(0.865802 -0.000303548 0)
(0.865801 -0.000303666 0)
(0.865801 -0.000303741 0)
(0.8658 -0.000303762 0)
(0.8658 -0.000303776 0)
(0.8658 -0.000303783 0)
(0.8658 -0.000303824 0)
(0.8658 -0.000303811 0)
(0.8658 -0.00030382 0)
(0.8658 -0.000303832 0)
(0.8658 -0.000303836 0)
(0.8658 -0.000303822 0)
(0.8658 -0.000303829 0)
(0.8658 -0.000303839 0)
(0.8658 -0.000303855 0)
(0.8658 -0.000303812 0)
(0.8658 -0.000303835 0)
(0.8658 -0.000303841 0)
(0.8658 -0.000303857 0)
(0.8658 -0.000303838 0)
(0.8658 -0.00030385 0)
(0.8658 -0.000303858 0)
(0.8658 -0.000303862 0)
(0.8658 -0.000303846 0)
(0.8658 -0.000303853 0)
(0.8658 -0.000303842 0)
(0.8658 -0.000303848 0)
(0.8658 -0.000303835 0)
(0.8658 -0.000303845 0)
(0.865799 -0.000303827 0)
(0.865799 -0.000303831 0)
(0.865799 -0.000303827 0)
(0.865799 -0.000303848 0)
(0.865799 -0.000303832 0)
(0.865799 -0.000303828 0)
(0.865799 -0.000303826 0)
(0.865799 -0.000303838 0)
(0.865799 -0.000303837 0)
(0.865799 -0.000303839 0)
(0.865799 -0.000303836 0)
(0.865799 -0.000303847 0)
(0.865799 -0.000303848 0)
(0.865799 -0.000303849 0)
(0.865799 -0.000303842 0)
(0.865799 -0.000303843 0)
(0.865799 -0.000303844 0)
(0.865799 -0.000303848 0)
(0.865799 -0.00030384 0)
(0.865799 -0.000303849 0)
(0.865799 -0.000303841 0)
(0.865799 -0.000303847 0)
(0.865799 -0.000303843 0)
(0.865799 -0.000303844 0)
(0.865799 -0.000303833 0)
(0.865799 -0.000303831 0)
(0.865799 -0.000303817 0)
(0.865799 -0.000303803 0)
(0.865799 -0.000303774 0)
(0.865798 -0.000303738 0)
(0.865798 -0.000303676 0)
(0.865797 -0.000303579 0)
(0.865796 -0.000303417 0)
(0.865794 -0.00030319 0)
(0.865791 -0.000302857 0)
(0.865787 -0.000302388 0)
(0.86578 -0.000301808 0)
(0.865771 -0.00030114 0)
(0.865759 -0.000300722 0)
(0.865747 -0.000300832 0)
(0.865728 -0.000301261 0)
(0.865721 -0.000292917 0)
(0.865547 -0.000238839 0)
(0.865251 -7.22706e-05 0)
(0.86318 -0.000218142 0)
(0.960416 0.135845 0)
(1.02545 0.0244607 0)
(0.976305 0.00338635 0)
(0.987353 0.000867524 0)
(0.982967 0.000136256 0)
(0.984815 0.000642582 0)
(0.983683 0.00064603 0)
(0.983534 0.000707532 0)
(0.982959 0.000655687 0)
(0.982635 0.000626761 0)
(0.982295 0.000586055 0)
(0.982049 0.000555381 0)
(0.98184 0.000526423 0)
(0.981681 0.000503119 0)
(0.981558 0.000484424 0)
(0.981466 0.000469683 0)
(0.981397 0.000458022 0)
(0.981348 0.000449316 0)
(0.981314 0.000442869 0)
(0.981289 0.000438286 0)
(0.981273 0.000434982 0)
(0.981262 0.000432635 0)
(0.981254 0.000430989 0)
(0.981249 0.000429999 0)
(0.981246 0.000429303 0)
(0.981244 0.000428862 0)
(0.981242 0.000428512 0)
(0.981241 0.000428285 0)
(0.981241 0.00042817 0)
(0.98124 0.000428119 0)
(0.98124 0.00042807 0)
(0.98124 0.000428054 0)
(0.98124 0.000428005 0)
(0.98124 0.000428013 0)
(0.98124 0.000427993 0)
(0.98124 0.000427971 0)
(0.98124 0.000427952 0)
(0.98124 0.00042797 0)
(0.98124 0.000427968 0)
(0.98124 0.000427967 0)
(0.98124 0.000427945 0)
(0.98124 0.000427984 0)
(0.981239 0.00042796 0)
(0.981239 0.000427963 0)
(0.981239 0.000427935 0)
(0.981239 0.000427943 0)
(0.981239 0.000427925 0)
(0.981239 0.00042792 0)
(0.981239 0.000427913 0)
(0.981239 0.00042794 0)
(0.981239 0.000427927 0)
(0.981239 0.000427942 0)
(0.981239 0.000427944 0)
(0.981239 0.000427969 0)
(0.981239 0.000427947 0)
(0.981239 0.000427966 0)
(0.981239 0.000427958 0)
(0.981239 0.000427973 0)
(0.981239 0.00042795 0)
(0.981239 0.000427968 0)
(0.981239 0.00042797 0)
(0.981239 0.00042798 0)
(0.981239 0.000427964 0)
(0.981239 0.000427967 0)
(0.981239 0.000427955 0)
(0.981239 0.000427959 0)
(0.981239 0.000427943 0)
(0.981239 0.000427947 0)
(0.981239 0.000427939 0)
(0.981239 0.000427949 0)
(0.981239 0.000427944 0)
(0.981239 0.000427953 0)
(0.981239 0.000427943 0)
(0.981239 0.000427953 0)
(0.981239 0.000427941 0)
(0.981239 0.000427954 0)
(0.981239 0.000427945 0)
(0.981239 0.000427952 0)
(0.981239 0.00042795 0)
(0.981239 0.000427969 0)
(0.981239 0.000427977 0)
(0.981239 0.000428004 0)
(0.981239 0.00042803 0)
(0.981239 0.000428087 0)
(0.981238 0.00042816 0)
(0.981238 0.000428286 0)
(0.981237 0.000428474 0)
(0.981236 0.000428784 0)
(0.981234 0.000429231 0)
(0.98123 0.000429877 0)
(0.981226 0.000430784 0)
(0.981219 0.000431934 0)
(0.98121 0.000433333 0)
(0.981197 0.000434453 0)
(0.981182 0.000435302 0)
(0.981156 0.000436701 0)
(0.981134 0.000459555 0)
(0.980909 0.000570383 0)
(0.980539 0.000945337 0)
(0.977587 0.00117994 0)
(0.985036 0.123207 0)
(1.05959 0.0287032 0)
(1.01374 0.00475274 0)
(1.02587 0.000759673 0)
(1.02089 -0.000137694 0)
(1.02297 0.000491938 0)
(1.0218 0.000527148 0)
(1.02176 0.000606571 0)
(1.02123 0.000540404 0)
(1.02097 0.000498769 0)
(1.02067 0.000442292 0)
(1.02045 0.000398361 0)
(1.02026 0.000357004 0)
(1.02012 0.000322621 0)
(1.02001 0.000295821 0)
(1.01993 0.000274612 0)
(1.01987 0.000257681 0)
(1.01982 0.000244975 0)
(1.01979 0.000235598 0)
(1.01977 0.000228794 0)
(1.01975 0.000223846 0)
(1.01974 0.000220372 0)
(1.01973 0.000217972 0)
(1.01973 0.000216486 0)
(1.01973 0.000215431 0)
(1.01972 0.000214749 0)
(1.01972 0.000214254 0)
(1.01972 0.000213935 0)
(1.01972 0.000213769 0)
(1.01972 0.000213681 0)
(1.01972 0.000213598 0)
(1.01972 0.000213574 0)
(1.01972 0.000213521 0)
(1.01972 0.000213521 0)
(1.01972 0.000213488 0)
(1.01972 0.000213454 0)
(1.01972 0.000213428 0)
(1.01972 0.000213451 0)
(1.01972 0.000213451 0)
(1.01972 0.000213458 0)
(1.01972 0.000213435 0)
(1.01972 0.00021347 0)
(1.01972 0.000213448 0)
(1.01972 0.000213451 0)
(1.01972 0.000213415 0)
(1.01972 0.000213416 0)
(1.01972 0.000213393 0)
(1.01972 0.000213388 0)
(1.01972 0.000213375 0)
(1.01972 0.000213411 0)
(1.01972 0.000213401 0)
(1.01972 0.000213417 0)
(1.01972 0.00021342 0)
(1.01972 0.000213453 0)
(1.01972 0.000213429 0)
(1.01972 0.000213446 0)
(1.01972 0.000213435 0)
(1.01972 0.000213457 0)
(1.01972 0.000213436 0)
(1.01972 0.000213456 0)
(1.01972 0.00021346 0)
(1.01972 0.000213474 0)
(1.01972 0.000213456 0)
(1.01972 0.00021346 0)
(1.01972 0.00021344 0)
(1.01972 0.000213443 0)
(1.01972 0.000213422 0)
(1.01972 0.000213429 0)
(1.01972 0.000213418 0)
(1.01972 0.000213431 0)
(1.01972 0.000213422 0)
(1.01972 0.000213437 0)
(1.01972 0.000213424 0)
(1.01972 0.000213436 0)
(1.01972 0.000213422 0)
(1.01972 0.000213436 0)
(1.01972 0.000213426 0)
(1.01972 0.000213435 0)
(1.01972 0.000213434 0)
(1.01972 0.00021346 0)
(1.01972 0.000213476 0)
(1.01972 0.000213517 0)
(1.01972 0.000213558 0)
(1.01972 0.00021364 0)
(1.01972 0.00021375 0)
(1.01972 0.00021394 0)
(1.01972 0.000214221 0)
(1.01972 0.000214672 0)
(1.01971 0.000215332 0)
(1.01971 0.000216283 0)
(1.01971 0.000217622 0)
(1.0197 0.000219345 0)
(1.01969 0.000221548 0)
(1.01968 0.000223602 0)
(1.01966 0.000226272 0)
(1.01963 0.000231041 0)
(1.0196 0.000272647 0)
(1.01935 0.000446009 0)
(1.01899 0.00105284 0)
(1.01588 0.001772 0)
(0.988606 0.109864 0)
(1.06804 0.031022 0)
(1.02558 0.00577184 0)
(1.03848 0.00061603 0)
(1.0331 -0.000345983 0)
(1.03535 0.000357083 0)
(1.03419 0.000426311 0)
(1.03426 0.000517036 0)
(1.0338 0.000441568 0)
(1.0336 0.000389748 0)
(1.03334 0.000321402 0)
(1.03317 0.000267244 0)
(1.03301 0.000216593 0)
(1.03289 0.000174167 0)
(1.0328 0.000140565 0)
(1.03273 0.000113807 0)
(1.03267 9.22649e-05 0)
(1.03264 7.58941e-05 0)
(1.03261 6.3659e-05 0)
(1.03259 5.45138e-05 0)
(1.03257 4.78683e-05 0)
(1.03256 4.33948e-05 0)
(1.03256 4.03101e-05 0)
(1.03255 3.8365e-05 0)
(1.03255 3.69897e-05 0)
(1.03255 3.60966e-05 0)
(1.03255 3.54701e-05 0)
(1.03255 3.50639e-05 0)
(1.03255 3.48406e-05 0)
(1.03255 3.47128e-05 0)
(1.03255 3.46074e-05 0)
(1.03255 3.45793e-05 0)
(1.03255 3.45218e-05 0)
(1.03255 3.45097e-05 0)
(1.03255 3.44642e-05 0)
(1.03255 3.44185e-05 0)
(1.03255 3.43893e-05 0)
(1.03255 3.44183e-05 0)
(1.03255 3.44195e-05 0)
(1.03255 3.44298e-05 0)
(1.03255 3.44073e-05 0)
(1.03255 3.44406e-05 0)
(1.03255 3.44213e-05 0)
(1.03255 3.44229e-05 0)
(1.03255 3.43778e-05 0)
(1.03255 3.4373e-05 0)
(1.03255 3.43475e-05 0)
(1.03255 3.43416e-05 0)
(1.03255 3.43223e-05 0)
(1.03255 3.43614e-05 0)
(1.03255 3.43579e-05 0)
(1.03255 3.43785e-05 0)
(1.03255 3.43802e-05 0)
(1.03255 3.44153e-05 0)
(1.03255 3.4393e-05 0)
(1.03255 3.44103e-05 0)
(1.03255 3.43952e-05 0)
(1.03255 3.44219e-05 0)
(1.03255 3.44047e-05 0)
(1.03255 3.44277e-05 0)
(1.03255 3.44347e-05 0)
(1.03255 3.44507e-05 0)
(1.03255 3.44308e-05 0)
(1.03255 3.44339e-05 0)
(1.03255 3.44082e-05 0)
(1.03255 3.44106e-05 0)
(1.03255 3.43849e-05 0)
(1.03255 3.43917e-05 0)
(1.03255 3.43794e-05 0)
(1.03255 3.43958e-05 0)
(1.03255 3.43846e-05 0)
(1.03255 3.44015e-05 0)
(1.03255 3.43877e-05 0)
(1.03255 3.44014e-05 0)
(1.03255 3.4387e-05 0)
(1.03255 3.44001e-05 0)
(1.03255 3.43889e-05 0)
(1.03255 3.44011e-05 0)
(1.03255 3.44009e-05 0)
(1.03255 3.44323e-05 0)
(1.03255 3.44561e-05 0)
(1.03255 3.45095e-05 0)
(1.03255 3.4564e-05 0)
(1.03255 3.46698e-05 0)
(1.03254 3.48136e-05 0)
(1.03254 3.5061e-05 0)
(1.03254 3.54244e-05 0)
(1.03254 3.60028e-05 0)
(1.03254 3.68486e-05 0)
(1.03254 3.80643e-05 0)
(1.03253 3.97814e-05 0)
(1.03253 4.20251e-05 0)
(1.03252 4.50223e-05 0)
(1.03251 4.81634e-05 0)
(1.03249 5.35251e-05 0)
(1.03246 6.30657e-05 0)
(1.03242 0.00012503 0)
(1.03218 0.000351618 0)
(1.03185 0.00117214 0)
(1.02901 0.00230041 0)
(0.986399 0.0981692 0)
(1.0683 0.0322555 0)
(1.02896 0.00660671 0)
(1.04243 0.000578093 0)
(1.03676 -0.000402956 0)
(1.03917 0.000342509 0)
(1.03801 0.000444094 0)
(1.03819 0.000541353 0)
(1.03779 0.000461001 0)
(1.03766 0.000402269 0)
(1.03746 0.000326557 0)
(1.03733 0.000266118 0)
(1.0372 0.00021039 0)
(1.03711 0.000164022 0)
(1.03703 0.000125202 0)
(1.03697 9.41179e-05 0)
(1.03693 6.8976e-05 0)
(1.0369 4.97808e-05 0)
(1.03687 3.5428e-05 0)
(1.03686 2.46639e-05 0)
(1.03685 1.68143e-05 0)
(1.03684 1.1493e-05 0)
(1.03683 7.80441e-06 0)
(1.03683 5.4417e-06 0)
(1.03683 3.77024e-06 0)
(1.03682 2.66479e-06 0)
(1.03682 1.8809e-06 0)
(1.03682 1.38879e-06 0)
(1.03682 1.11109e-06 0)
(1.03682 9.49653e-07 0)
(1.03682 8.26262e-07 0)
(1.03682 7.94367e-07 0)
(1.03682 7.30131e-07 0)
(1.03682 7.03682e-07 0)
(1.03682 6.49299e-07 0)
(1.03682 5.95364e-07 0)
(1.03682 5.62557e-07 0)
(1.03682 5.94653e-07 0)
(1.03682 5.99614e-07 0)
(1.03682 6.12801e-07 0)
(1.03682 5.89502e-07 0)
(1.03682 6.1958e-07 0)
(1.03682 6.0381e-07 0)
(1.03682 6.06567e-07 0)
(1.03682 5.52777e-07 0)
(1.03682 5.40826e-07 0)
(1.03682 5.12281e-07 0)
(1.03682 5.05886e-07 0)
(1.03682 4.8229e-07 0)
(1.03682 5.21068e-07 0)
(1.03682 5.2297e-07 0)
(1.03682 5.4773e-07 0)
(1.03682 5.49648e-07 0)
(1.03682 5.86248e-07 0)
(1.03682 5.65556e-07 0)
(1.03682 5.83011e-07 0)
(1.03682 5.64913e-07 0)
(1.03682 5.95816e-07 0)
(1.03682 5.83636e-07 0)
(1.03682 6.08304e-07 0)
(1.03682 6.18363e-07 0)
(1.03682 6.36586e-07 0)
(1.03682 6.15454e-07 0)
(1.03682 6.17111e-07 0)
(1.03682 5.86544e-07 0)
(1.03682 5.8733e-07 0)
(1.03682 5.59271e-07 0)
(1.03682 5.64386e-07 0)
(1.03682 5.50749e-07 0)
(1.03682 5.69132e-07 0)
(1.03682 5.56969e-07 0)
(1.03682 5.74355e-07 0)
(1.03682 5.59944e-07 0)
(1.03682 5.74599e-07 0)
(1.03682 5.60843e-07 0)
(1.03682 5.72675e-07 0)
(1.03682 5.60532e-07 0)
(1.03682 5.75288e-07 0)
(1.03682 5.77253e-07 0)
(1.03682 6.12693e-07 0)
(1.03682 6.43358e-07 0)
(1.03682 7.06972e-07 0)
(1.03682 7.74171e-07 0)
(1.03682 8.99221e-07 0)
(1.03682 1.07245e-06 0)
(1.03682 1.36806e-06 0)
(1.03682 1.80226e-06 0)
(1.03682 2.525e-06 0)
(1.03682 3.56292e-06 0)
(1.03682 5.026e-06 0)
(1.03681 7.08264e-06 0)
(1.03681 9.79676e-06 0)
(1.0368 1.35652e-05 0)
(1.03679 1.78613e-05 0)
(1.03678 2.59565e-05 0)
(1.03674 4.02517e-05 0)
(1.0367 0.000121043 0)
(1.03647 0.000386646 0)
(1.03621 0.00140312 0)
(1.03381 0.00285077 0)
(0.983075 0.0875532 0)
(1.06617 0.0325724 0)
(1.02959 0.00720461 0)
(1.04348 0.000559815 0)
(1.03761 -0.000411811 0)
(1.04013 0.000352155 0)
(1.03899 0.000484538 0)
(1.03928 0.000586242 0)
(1.03894 0.000503606 0)
(1.03887 0.000439821 0)
(1.03872 0.000358657 0)
(1.03863 0.000293017 0)
(1.03853 0.000232613 0)
(1.03847 0.000182086 0)
(1.03841 0.000139441 0)
(1.03837 0.000105253 0)
(1.03833 7.75449e-05 0)
(1.03831 5.64125e-05 0)
(1.03829 4.07447e-05 0)
(1.03828 2.91468e-05 0)
(1.03827 2.06229e-05 0)
(1.03826 1.46217e-05 0)
(1.03826 1.0433e-05 0)
(1.03825 7.71255e-06 0)
(1.03825 5.77899e-06 0)
(1.03825 4.47289e-06 0)
(1.03825 3.55369e-06 0)
(1.03825 2.98553e-06 0)
(1.03825 2.66172e-06 0)
(1.03825 2.47669e-06 0)
(1.03825 2.33852e-06 0)
(1.03825 2.30117e-06 0)
(1.03825 2.22928e-06 0)
(1.03825 2.18775e-06 0)
(1.03825 2.12563e-06 0)
(1.03825 2.06861e-06 0)
(1.03825 2.03282e-06 0)
(1.03825 2.06468e-06 0)
(1.03825 2.07341e-06 0)
(1.03825 2.09088e-06 0)
(1.03825 2.06703e-06 0)
(1.03825 2.09328e-06 0)
(1.03825 2.07821e-06 0)
(1.03825 2.08517e-06 0)
(1.03825 2.02537e-06 0)
(1.03825 2.00578e-06 0)
(1.03825 1.97335e-06 0)
(1.03825 1.968e-06 0)
(1.03825 1.94248e-06 0)
(1.03825 1.97934e-06 0)
(1.03825 1.9849e-06 0)
(1.03825 2.01358e-06 0)
(1.03825 2.01615e-06 0)
(1.03825 2.05315e-06 0)
(1.03825 2.03319e-06 0)
(1.03825 2.05093e-06 0)
(1.03825 2.03033e-06 0)
(1.03825 2.06416e-06 0)
(1.03825 2.05818e-06 0)
(1.03825 2.08479e-06 0)
(1.03825 2.09681e-06 0)
(1.03825 2.11694e-06 0)
(1.03825 2.09531e-06 0)
(1.03825 2.09561e-06 0)
(1.03825 2.06038e-06 0)
(1.03825 2.05927e-06 0)
(1.03825 2.02995e-06 0)
(1.03825 2.03346e-06 0)
(1.03825 2.01822e-06 0)
(1.03825 2.03828e-06 0)
(1.03825 2.02635e-06 0)
(1.03825 2.04341e-06 0)
(1.03825 2.0285e-06 0)
(1.03825 2.04361e-06 0)
(1.03825 2.0306e-06 0)
(1.03825 2.04142e-06 0)
(1.03825 2.02802e-06 0)
(1.03825 2.0448e-06 0)
(1.03825 2.04969e-06 0)
(1.03825 2.08827e-06 0)
(1.03825 2.12466e-06 0)
(1.03825 2.19677e-06 0)
(1.03825 2.27458e-06 0)
(1.03825 2.41505e-06 0)
(1.03825 2.61198e-06 0)
(1.03825 2.9461e-06 0)
(1.03825 3.44006e-06 0)
(1.03824 4.26943e-06 0)
(1.03824 5.48922e-06 0)
(1.03824 7.17302e-06 0)
(1.03824 9.52233e-06 0)
(1.03824 1.26475e-05 0)
(1.03823 1.71346e-05 0)
(1.03822 2.25781e-05 0)
(1.03821 3.31749e-05 0)
(1.03818 5.17134e-05 0)
(1.03814 0.000148987 0)
(1.03793 0.000449179 0)
(1.03774 0.00163077 0)
(1.03586 0.0033173 0)
(0.979966 0.0778405 0)
(1.06355 0.0321207 0)
(1.02936 0.00755249 0)
(1.04357 0.000527125 0)
(1.03755 -0.000414153 0)
(1.04017 0.000350202 0)
(1.03904 0.000510007 0)
(1.03942 0.000614006 0)
(1.03914 0.000531572 0)
(1.03914 0.000464778 0)
(1.03903 0.000380495 0)
(1.03898 0.000311416 0)
(1.03892 0.000247756 0)
(1.03887 0.00019413 0)
(1.03884 0.000148891 0)
(1.03881 0.000112564 0)
(1.03878 8.30004e-05 0)
(1.03877 6.03742e-05 0)
(1.03875 4.36004e-05 0)
(1.03874 3.11641e-05 0)
(1.03874 2.1979e-05 0)
(1.03873 1.54753e-05 0)
(1.03873 1.09345e-05 0)
(1.03873 7.97469e-06 0)
(1.03873 5.88286e-06 0)
(1.03872 4.47071e-06 0)
(1.03872 3.48336e-06 0)
(1.03872 2.83259e-06 0)
(1.03872 2.47192e-06 0)
(1.03872 2.27056e-06 0)
(1.03872 2.11807e-06 0)
(1.03872 2.07142e-06 0)
(1.03872 1.99263e-06 0)
(1.03872 1.93767e-06 0)
(1.03872 1.86815e-06 0)
(1.03872 1.81093e-06 0)
(1.03872 1.77438e-06 0)
(1.03872 1.80363e-06 0)
(1.03872 1.81508e-06 0)
(1.03872 1.83733e-06 0)
(1.03872 1.81406e-06 0)
(1.03872 1.83681e-06 0)
(1.03872 1.81941e-06 0)
(1.03872 1.83171e-06 0)
(1.03872 1.76992e-06 0)
(1.03872 1.7429e-06 0)
(1.03872 1.70591e-06 0)
(1.03872 1.70254e-06 0)
(1.03872 1.67743e-06 0)
(1.03872 1.71129e-06 0)
(1.03872 1.71838e-06 0)
(1.03872 1.75009e-06 0)
(1.03872 1.75365e-06 0)
(1.03872 1.79047e-06 0)
(1.03872 1.77033e-06 0)
(1.03872 1.78849e-06 0)
(1.03872 1.7661e-06 0)
(1.03872 1.80129e-06 0)
(1.03872 1.80212e-06 0)
(1.03872 1.83149e-06 0)
(1.03872 1.84433e-06 0)
(1.03872 1.86568e-06 0)
(1.03872 1.84425e-06 0)
(1.03872 1.84373e-06 0)
(1.03872 1.80427e-06 0)
(1.03872 1.80073e-06 0)
(1.03872 1.77119e-06 0)
(1.03872 1.77372e-06 0)
(1.03872 1.75688e-06 0)
(1.03872 1.77793e-06 0)
(1.03872 1.767e-06 0)
(1.03872 1.78351e-06 0)
(1.03872 1.76818e-06 0)
(1.03872 1.78313e-06 0)
(1.03872 1.7707e-06 0)
(1.03872 1.78098e-06 0)
(1.03872 1.76628e-06 0)
(1.03872 1.78433e-06 0)
(1.03872 1.79259e-06 0)
(1.03872 1.83362e-06 0)
(1.03872 1.87428e-06 0)
(1.03872 1.95318e-06 0)
(1.03872 2.0393e-06 0)
(1.03872 2.1928e-06 0)
(1.03872 2.40893e-06 0)
(1.03872 2.77315e-06 0)
(1.03872 3.3336e-06 0)
(1.03872 4.21261e-06 0)
(1.03872 5.5141e-06 0)
(1.03872 7.32195e-06 0)
(1.03872 9.86456e-06 0)
(1.03871 1.32986e-05 0)
(1.03871 1.8397e-05 0)
(1.0387 2.49127e-05 0)
(1.03869 3.81392e-05 0)
(1.03866 6.09842e-05 0)
(1.03863 0.000172699 0)
(1.03847 0.000499281 0)
(1.03833 0.00180388 0)
(1.037 0.00365521 0)
(0.977359 0.0689958 0)
(1.06102 0.0310619 0)
(1.02892 0.00767578 0)
(1.04336 0.000483498 0)
(1.03723 -0.000413284 0)
(1.03992 0.000336969 0)
(1.0388 0.0005193 0)
(1.03926 0.000623492 0)
(1.03904 0.000543412 0)
(1.03909 0.000475623 0)
(1.03903 0.000390628 0)
(1.03902 0.000320151 0)
(1.03899 0.00025511 0)
(1.03897 0.000200013 0)
(1.03895 0.00015344 0)
(1.03893 0.000115959 0)
(1.03892 8.53259e-05 0)
(1.03891 6.17779e-05 0)
(1.0389 4.42904e-05 0)
(1.03889 3.12687e-05 0)
(1.03889 2.16189e-05 0)
(1.03889 1.47981e-05 0)
(1.03889 1.005e-05 0)
(1.03888 6.9618e-06 0)
(1.03888 4.80247e-06 0)
(1.03888 3.36253e-06 0)
(1.03888 2.35383e-06 0)
(1.03888 1.6638e-06 0)
(1.03888 1.27545e-06 0)
(1.03888 1.05773e-06 0)
(1.03888 8.87585e-07 0)
(1.03888 8.25331e-07 0)
(1.03888 7.40538e-07 0)
(1.03888 6.74656e-07 0)
(1.03888 5.99029e-07 0)
(1.03888 5.41979e-07 0)
(1.03888 5.06757e-07 0)
(1.03888 5.32594e-07 0)
(1.03888 5.45544e-07 0)
(1.03888 5.72191e-07 0)
(1.03888 5.50832e-07 0)
(1.03888 5.70955e-07 0)
(1.03888 5.4979e-07 0)
(1.03888 5.66017e-07 0)
(1.03888 5.06099e-07 0)
(1.03888 4.7302e-07 0)
(1.03888 4.31527e-07 0)
(1.03888 4.29852e-07 0)
(1.03888 4.06543e-07 0)
(1.03888 4.37319e-07 0)
(1.03888 4.4395e-07 0)
(1.03888 4.77509e-07 0)
(1.03888 4.81966e-07 0)
(1.03888 5.18314e-07 0)
(1.03888 4.97538e-07 0)
(1.03888 5.16174e-07 0)
(1.03888 4.92873e-07 0)
(1.03888 5.27779e-07 0)
(1.03888 5.35363e-07 0)
(1.03888 5.68516e-07 0)
(1.03888 5.82004e-07 0)
(1.03888 6.03251e-07 0)
(1.03888 5.82561e-07 0)
(1.03888 5.81876e-07 0)
(1.03888 5.39178e-07 0)
(1.03888 5.3236e-07 0)
(1.03888 5.03224e-07 0)
(1.03888 5.05813e-07 0)
(1.03888 4.87612e-07 0)
(1.03888 5.08688e-07 0)
(1.03888 4.98887e-07 0)
(1.03888 5.14826e-07 0)
(1.03888 4.99277e-07 0)
(1.03888 5.13495e-07 0)
(1.03888 5.01285e-07 0)
(1.03888 5.11292e-07 0)
(1.03888 4.95938e-07 0)
(1.03888 5.14392e-07 0)
(1.03888 5.26109e-07 0)
(1.03888 5.69006e-07 0)
(1.03888 6.12703e-07 0)
(1.03888 6.96618e-07 0)
(1.03888 7.89042e-07 0)
(1.03888 9.59408e-07 0)
(1.03888 1.19506e-06 0)
(1.03888 1.5823e-06 0)
(1.03888 2.17281e-06 0)
(1.03888 3.066e-06 0)
(1.03888 4.36652e-06 0)
(1.03888 6.21399e-06 0)
(1.03888 8.85756e-06 0)
(1.03888 1.24964e-05 0)
(1.03887 1.80751e-05 0)
(1.03887 2.5517e-05 0)
(1.03886 4.11245e-05 0)
(1.03884 6.77522e-05 0)
(1.03881 0.000190681 0)
(1.03869 0.000533671 0)
(1.03862 0.00191704 0)
(1.03784 0.00386452 0)
(0.975244 0.0609224 0)
(1.05874 0.0295235 0)
(1.02845 0.00760354 0)
(1.04306 0.000435674 0)
(1.03684 -0.000407372 0)
(1.03958 0.000316534 0)
(1.03849 0.000515476 0)
(1.03902 0.000617967 0)
(1.03884 0.000541917 0)
(1.03895 0.0004749 0)
(1.03893 0.000391297 0)
(1.03895 0.000321272 0)
(1.03895 0.000256552 0)
(1.03895 0.000201481 0)
(1.03895 0.000154786 0)
(1.03895 0.000117118 0)
(1.03895 8.62152e-05 0)
(1.03894 6.23678e-05 0)
(1.03894 4.46401e-05 0)
(1.03894 3.13978e-05 0)
(1.03894 2.15432e-05 0)
(1.03894 1.45773e-05 0)
(1.03894 9.73755e-06 0)
(1.03894 6.58765e-06 0)
(1.03893 4.39169e-06 0)
(1.03893 2.9306e-06 0)
(1.03893 1.92331e-06 0)
(1.03893 1.24934e-06 0)
(1.03893 8.50111e-07 0)
(1.03893 6.27127e-07 0)
(1.03893 4.48043e-07 0)
(1.03893 3.74653e-07 0)
(1.03893 2.8518e-07 0)
(1.03893 2.09685e-07 0)
(1.03893 1.29149e-07 0)
(1.03893 7.31073e-08 0)
(1.03893 4.03496e-08 0)
(1.03893 6.28073e-08 0)
(1.03893 7.50739e-08 0)
(1.03893 1.05695e-07 0)
(1.03893 8.81864e-08 0)
(1.03893 1.06224e-07 0)
(1.03893 8.13648e-08 0)
(1.03893 9.91361e-08 0)
(1.03893 4.29576e-08 0)
(1.03893 6.31698e-09 0)
(1.03893 -3.87687e-08 0)
(1.03893 -3.92512e-08 0)
(1.03893 -6.04926e-08 0)
(1.03893 -3.24576e-08 0)
(1.03893 -2.91553e-08 0)
(1.03893 5.81404e-09 0)
(1.03893 1.03246e-08 0)
(1.03893 4.62668e-08 0)
(1.03893 2.46284e-08 0)
(1.03893 4.45328e-08 0)
(1.03893 2.09342e-08 0)
(1.03893 5.41304e-08 0)
(1.03893 6.73732e-08 0)
(1.03893 1.05693e-07 0)
(1.03893 1.21265e-07 0)
(1.03893 1.4093e-07 0)
(1.03893 1.21087e-07 0)
(1.03893 1.20091e-07 0)
(1.03893 7.53891e-08 0)
(1.03893 6.42917e-08 0)
(1.03893 3.56579e-08 0)
(1.03893 4.00093e-08 0)
(1.03893 2.0751e-08 0)
(1.03893 4.12616e-08 0)
(1.03893 3.14879e-08 0)
(1.03893 4.70116e-08 0)
(1.03893 3.10209e-08 0)
(1.03893 4.41904e-08 0)
(1.03893 3.17887e-08 0)
(1.03893 4.14087e-08 0)
(1.03893 2.6465e-08 0)
(1.03893 4.45856e-08 0)
(1.03893 5.94772e-08 0)
(1.03893 1.04295e-07 0)
(1.03893 1.5074e-07 0)
(1.03893 2.38001e-07 0)
(1.03893 3.34154e-07 0)
(1.03893 5.08511e-07 0)
(1.03893 7.50515e-07 0)
(1.03893 1.14488e-06 0)
(1.03893 1.72101e-06 0)
(1.03893 2.5993e-06 0)
(1.03893 3.89513e-06 0)
(1.03893 5.7589e-06 0)
(1.03893 8.45452e-06 0)
(1.03893 1.22181e-05 0)
(1.03893 1.81435e-05 0)
(1.03893 2.63163e-05 0)
(1.03892 4.38227e-05 0)
(1.03891 7.33465e-05 0)
(1.03888 0.000203632 0)
(1.03882 0.000553332 0)
(1.03882 0.00197254 0)
(1.03856 0.00395346 0)
(0.973544 0.0534991 0)
(1.05675 0.0275997 0)
(1.02802 0.00735993 0)
(1.04276 0.000386938 0)
(1.03647 -0.000395878 0)
(1.03925 0.000291006 0)
(1.03816 0.000499945 0)
(1.03876 0.000598999 0)
(1.03863 0.000528233 0)
(1.03879 0.00046351 0)
(1.0388 0.000383092 0)
(1.03886 0.000315138 0)
(1.03888 0.000252227 0)
(1.03891 0.000198482 0)
(1.03892 0.000152788 0)
(1.03893 0.00011584 0)
(1.03894 8.5423e-05 0)
(1.03894 6.18714e-05 0)
(1.03895 4.43569e-05 0)
(1.03895 3.1244e-05 0)
(1.03895 2.14396e-05 0)
(1.03895 1.44989e-05 0)
(1.03895 9.68331e-06 0)
(1.03895 6.54106e-06 0)
(1.03895 4.34466e-06 0)
(1.03895 2.87488e-06 0)
(1.03895 1.87017e-06 0)
(1.03895 1.20617e-06 0)
(1.03895 8.08974e-07 0)
(1.03895 5.92132e-07 0)
(1.03895 4.14111e-07 0)
(1.03895 3.36896e-07 0)
(1.03895 2.44647e-07 0)
(1.03895 1.62135e-07 0)
(1.03895 7.97005e-08 0)
(1.03895 2.41857e-08 0)
(1.03895 -5.50778e-09 0)
(1.03895 1.40711e-08 0)
(1.03895 2.60411e-08 0)
(1.03895 6.0239e-08 0)
(1.03895 4.60662e-08 0)
(1.03895 6.28778e-08 0)
(1.03895 3.40896e-08 0)
(1.03895 5.10435e-08 0)
(1.03895 1.52256e-09 0)
(1.03895 -3.70942e-08 0)
(1.03895 -8.50138e-08 0)
(1.03895 -8.63859e-08 0)
(1.03895 -1.0574e-07 0)
(1.03895 -8.00731e-08 0)
(1.03895 -7.94517e-08 0)
(1.03895 -4.49551e-08 0)
(1.03895 -3.96077e-08 0)
(1.03895 -4.30812e-09 0)
(1.03895 -2.68502e-08 0)
(1.03895 -6.8318e-09 0)
(1.03895 -2.9053e-08 0)
(1.03895 2.17213e-09 0)
(1.03895 2.01607e-08 0)
(1.03895 6.36512e-08 0)
(1.03895 8.10924e-08 0)
(1.03895 9.86028e-08 0)
(1.03895 7.91405e-08 0)
(1.03895 7.88416e-08 0)
(1.03895 3.41749e-08 0)
(1.03895 1.85606e-08 0)
(1.03895 -9.69259e-09 0)
(1.03895 -3.746e-09 0)
(1.03895 -2.33077e-08 0)
(1.03895 -4.81863e-09 0)
(1.03895 -1.43787e-08 0)
(1.03895 5.52837e-10 0)
(1.03895 -1.52157e-08 0)
(1.03895 -3.00401e-09 0)
(1.03895 -1.60515e-08 0)
(1.03895 -7.31164e-09 0)
(1.03895 -2.0771e-08 0)
(1.03895 -3.37773e-09 0)
(1.03895 1.42578e-08 0)
(1.03895 5.979e-08 0)
(1.03895 1.06246e-07 0)
(1.03895 1.94216e-07 0)
(1.03895 2.91067e-07 0)
(1.03895 4.55818e-07 0)
(1.03895 6.90076e-07 0)
(1.03895 1.07743e-06 0)
(1.03895 1.64434e-06 0)
(1.03895 2.51187e-06 0)
(1.03895 3.79741e-06 0)
(1.03895 5.65143e-06 0)
(1.03895 8.34769e-06 0)
(1.03895 1.21502e-05 0)
(1.03895 1.82675e-05 0)
(1.03895 2.69274e-05 0)
(1.03895 4.57346e-05 0)
(1.03894 7.71172e-05 0)
(1.03893 0.000210696 0)
(1.03892 0.000557965 0)
(1.03898 0.00197226 0)
(1.03921 0.00393005 0)
(0.972179 0.0466189 0)
(1.05502 0.0253634 0)
(1.02765 0.00696597 0)
(1.04248 0.000338889 0)
(1.03614 -0.000378505 0)
(1.03893 0.000261895 0)
(1.03786 0.000473806 0)
(1.03851 0.000567771 0)
(1.03842 0.000503211 0)
(1.03862 0.000442101 0)
(1.03867 0.000366408 0)
(1.03876 0.000301956 0)
(1.03881 0.000242179 0)
(1.03885 0.000190925 0)
(1.03888 0.000147256 0)
(1.03891 0.000111867 0)
(1.03892 8.2635e-05 0)
(1.03893 5.99352e-05 0)
(1.03894 4.30577e-05 0)
(1.03895 3.03978e-05 0)
(1.03895 2.08849e-05 0)
(1.03895 1.41386e-05 0)
(1.03896 9.46729e-06 0)
(1.03896 6.41471e-06 0)
(1.03896 4.27268e-06 0)
(1.03896 2.83019e-06 0)
(1.03896 1.84934e-06 0)
(1.03896 1.20283e-06 0)
(1.03896 8.11392e-07 0)
(1.03896 5.99033e-07 0)
(1.03896 4.21233e-07 0)
(1.03896 3.39724e-07 0)
(1.03896 2.46538e-07 0)
(1.03896 1.59538e-07 0)
(1.03896 7.84969e-08 0)
(1.03896 2.31227e-08 0)
(1.03896 -3.0121e-09 0)
(1.03896 1.43701e-08 0)
(1.03896 2.6623e-08 0)
(1.03896 6.35888e-08 0)
(1.03896 5.1715e-08 0)
(1.03896 6.83627e-08 0)
(1.03896 3.55323e-08 0)
(1.03896 4.98254e-08 0)
(1.03896 8.8395e-09 0)
(1.03896 -2.99748e-08 0)
(1.03896 -7.99679e-08 0)
(1.03896 -8.41192e-08 0)
(1.03896 -1.02124e-07 0)
(1.03896 -7.86555e-08 0)
(1.03896 -7.92192e-08 0)
(1.03896 -4.72685e-08 0)
(1.03896 -4.008e-08 0)
(1.03896 -5.67798e-09 0)
(1.03896 -2.90308e-08 0)
(1.03896 -1.04191e-08 0)
(1.03896 -2.93522e-08 0)
(1.03896 3.60357e-10 0)
(1.03896 2.21652e-08 0)
(1.03896 6.98773e-08 0)
(1.03896 8.87067e-08 0)
(1.03896 1.04358e-07 0)
(1.03896 8.43843e-08 0)
(1.03896 8.5697e-08 0)
(1.03896 4.28969e-08 0)
(1.03896 2.36958e-08 0)
(1.03896 -4.81786e-09 0)
(1.03896 1.81142e-09 0)
(1.03896 -1.70838e-08 0)
(1.03896 -1.97583e-09 0)
(1.03896 -1.09282e-08 0)
(1.03896 3.08363e-09 0)
(1.03896 -1.14845e-08 0)
(1.03896 7.45221e-11 0)
(1.03896 -1.36513e-08 0)
(1.03896 -6.28233e-09 0)
(1.03896 -1.75102e-08 0)
(1.03896 -7.98531e-10 0)
(1.03896 1.81986e-08 0)
(1.03896 6.29816e-08 0)
(1.03896 1.06457e-07 0)
(1.03896 1.92426e-07 0)
(1.03896 2.87679e-07 0)
(1.03896 4.46373e-07 0)
(1.03896 6.72869e-07 0)
(1.03896 1.04829e-06 0)
(1.03896 1.60075e-06 0)
(1.03896 2.44415e-06 0)
(1.03896 3.69123e-06 0)
(1.03896 5.4923e-06 0)
(1.03896 8.12461e-06 0)
(1.03896 1.18686e-05 0)
(1.03896 1.80019e-05 0)
(1.03897 2.68672e-05 0)
(1.03896 4.63026e-05 0)
(1.03897 7.84288e-05 0)
(1.03896 0.000211206 0)
(1.03901 0.000547414 0)
(1.03912 0.00191879 0)
(1.03982 0.00380291 0)
(0.971084 0.040192 0)
(1.05355 0.0228741 0)
(1.02733 0.00644096 0)
(1.04223 0.000292472 0)
(1.03585 -0.000354847 0)
(1.03864 0.000230629 0)
(1.03758 0.000438365 0)
(1.03829 0.000525661 0)
(1.03823 0.000467959 0)
(1.03847 0.000411597 0)