/*--------------------------------*- C++ -*----------------------------------*\
| =========                 |                                                 |
| \\      /  F ield         | OpenFOAM: The Open Source CFD Toolbox           |
|  \\    /   O peration     | Version:  v1906                                 |
|   \\  /    A nd           | Web:      www.OpenFOAM.com                      |
|    \\/     M anipulation  |                                                 |
\*---------------------------------------------------------------------------*/
FoamFile
{
    version     2.0;
    format      ascii;
    class       volVectorField;
    location    "0.5";
    object      U;
}
// * * * * * * * * * * * * * * * * * * * * * * * * * * * * * * * * * * * * * //

dimensions      [0 1 -1 0 0 0 0];


internalField   nonuniform List<vector> 
4000
(
(0.48652 0.0295832 0)
(0.550299 -0.00143021 0)
(0.507268 -0.0021695 0)
(0.53041 -0.00196447 0)
(0.515175 -0.00213022 0)
(0.523803 -0.00203455 0)
(0.517772 -0.00210765 0)
(0.521129 -0.00207062 0)
(0.518763 -0.00210111 0)
(0.520096 -0.00208654 0)
(0.519178 -0.00209839 0)
(0.519711 -0.00209249 0)
(0.519355 -0.00209698 0)
(0.519568 -0.00209456 0)
(0.51943 -0.00209629 0)
(0.519514 -0.00209532 0)
(0.51946 -0.00209596 0)
(0.519494 -0.00209556 0)
(0.519472 -0.00209583 0)
(0.519486 -0.00209569 0)
(0.519477 -0.00209577 0)
(0.519482 -0.0020957 0)
(0.519479 -0.00209575 0)
(0.519481 -0.00209573 0)
(0.51948 -0.00209574 0)
(0.519481 -0.00209573 0)
(0.51948 -0.00209574 0)
(0.519481 -0.00209573 0)
(0.519481 -0.00209573 0)
(0.519481 -0.00209573 0)
(0.519481 -0.00209573 0)
(0.519481 -0.00209573 0)
(0.519481 -0.00209574 0)
(0.519481 -0.00209574 0)
(0.519481 -0.00209573 0)
(0.519481 -0.00209572 0)
(0.519481 -0.00209574 0)
(0.519481 -0.00209574 0)
(0.519481 -0.00209573 0)
(0.519481 -0.00209573 0)
(0.519481 -0.00209574 0)
(0.519481 -0.00209574 0)
(0.519481 -0.00209573 0)
(0.519481 -0.00209573 0)
(0.519481 -0.00209573 0)
(0.519481 -0.00209574 0)
(0.519481 -0.00209573 0)
(0.519481 -0.00209573 0)
(0.519481 -0.00209573 0)
(0.519481 -0.00209574 0)
(0.519481 -0.00209574 0)
(0.519481 -0.00209573 0)
(0.519481 -0.00209573 0)
(0.519481 -0.00209574 0)
(0.519481 -0.00209574 0)
(0.519481 -0.00209573 0)
(0.519481 -0.00209573 0)
(0.519481 -0.00209574 0)
(0.519481 -0.00209573 0)
(0.519481 -0.00209573 0)
(0.519481 -0.00209573 0)
(0.519481 -0.00209573 0)
(0.519481 -0.00209573 0)
(0.519481 -0.00209573 0)
(0.51948 -0.00209573 0)
(0.51948 -0.00209574 0)
(0.51948 -0.00209573 0)
(0.51948 -0.00209573 0)
(0.51948 -0.00209574 0)
(0.51948 -0.00209574 0)
(0.51948 -0.00209573 0)
(0.51948 -0.00209573 0)
(0.51948 -0.00209573 0)
(0.51948 -0.00209573 0)
(0.51948 -0.00209573 0)
(0.51948 -0.00209573 0)
(0.51948 -0.00209573 0)
(0.51948 -0.00209573 0)
(0.51948 -0.00209573 0)
(0.51948 -0.00209573 0)
(0.51948 -0.00209573 0)
(0.51948 -0.00209573 0)
(0.51948 -0.00209573 0)
(0.51948 -0.00209573 0)
(0.51948 -0.00209573 0)
(0.51948 -0.00209573 0)
(0.51948 -0.00209573 0)
(0.51948 -0.00209573 0)
(0.51948 -0.00209573 0)
(0.51948 -0.00209573 0)
(0.51948 -0.00209572 0)
(0.51948 -0.00209572 0)
(0.519479 -0.00209569 0)
(0.519479 -0.00209566 0)
(0.519476 -0.00209553 0)
(0.519472 -0.0020955 0)
(0.519467 -0.00209516 0)
(0.519444 -0.00209621 0)
(0.519493 -0.00208511 0)
(0.519164 -0.00211054 0)
(0.803147 0.0707397 0)
(0.915681 0.00207221 0)
(0.844662 -0.000799874 0)
(0.883983 0.000312749 0)
(0.858308 -0.00053008 0)
(0.873017 -3.06222e-05 0)
(0.862857 -0.000396919 0)
(0.868572 -0.000205167 0)
(0.864578 -0.000356303 0)
(0.866841 -0.000281183 0)
(0.865288 -0.000339804 0)
(0.866192 -0.000309756 0)
(0.865589 -0.000331969 0)
(0.86595 -0.000319719 0)
(0.865715 -0.000328271 0)
(0.865858 -0.000323345 0)
(0.865766 -0.000326617 0)
(0.865823 -0.000324626 0)
(0.865787 -0.000325937 0)
(0.86581 -0.000325183 0)
(0.865795 -0.000325649 0)
(0.865804 -0.000325306 0)
(0.865799 -0.000325515 0)
(0.865802 -0.000325426 0)
(0.8658 -0.000325487 0)
(0.865801 -0.000325433 0)
(0.865801 -0.000325463 0)
(0.865801 -0.000325455 0)
(0.865801 -0.000325453 0)
(0.865801 -0.000325446 0)
(0.865801 -0.000325446 0)
(0.865801 -0.000325442 0)
(0.865801 -0.000325454 0)
(0.865801 -0.000325478 0)
(0.865801 -0.000325445 0)
(0.865801 -0.000325436 0)
(0.865801 -0.000325466 0)
(0.865801 -0.000325485 0)
(0.865801 -0.000325444 0)
(0.865801 -0.000325435 0)
(0.865801 -0.000325463 0)
(0.865801 -0.000325474 0)
(0.865801 -0.000325449 0)
(0.865801 -0.000325439 0)
(0.865801 -0.000325453 0)
(0.865801 -0.000325478 0)
(0.865801 -0.000325456 0)
(0.865801 -0.000325442 0)
(0.865801 -0.000325456 0)
(0.865801 -0.000325473 0)
(0.865801 -0.00032546 0)
(0.865801 -0.000325449 0)
(0.865801 -0.000325443 0)
(0.865801 -0.000325461 0)
(0.865801 -0.000325466 0)
(0.865801 -0.000325452 0)
(0.865801 -0.000325446 0)
(0.865801 -0.00032546 0)
(0.865801 -0.000325455 0)
(0.865801 -0.000325449 0)
(0.865801 -0.000325454 0)
(0.865801 -0.000325456 0)
(0.865801 -0.000325447 0)
(0.865801 -0.00032545 0)
(0.865801 -0.000325455 0)
(0.865801 -0.000325476 0)
(0.865801 -0.000325444 0)
(0.865801 -0.000325441 0)
(0.865801 -0.000325463 0)
(0.865801 -0.000325464 0)
(0.865801 -0.000325449 0)
(0.865801 -0.000325441 0)
(0.865801 -0.000325448 0)
(0.865801 -0.000325458 0)
(0.865801 -0.000325457 0)
(0.865801 -0.00032545 0)
(0.865801 -0.000325452 0)
(0.865801 -0.000325455 0)
(0.865801 -0.000325452 0)
(0.865801 -0.00032545 0)
(0.865801 -0.000325457 0)
(0.865801 -0.00032546 0)
(0.865801 -0.000325453 0)
(0.865801 -0.000325454 0)
(0.865801 -0.000325456 0)
(0.865801 -0.000325456 0)
(0.865801 -0.000325451 0)
(0.865801 -0.000325454 0)
(0.865801 -0.000325447 0)
(0.865801 -0.000325444 0)
(0.8658 -0.000325419 0)
(0.865801 -0.000325407 0)
(0.865799 -0.0003253 0)
(0.865799 -0.000325193 0)
(0.865794 -0.000324737 0)
(0.865788 -0.00032463 0)
(0.86578 -0.000322999 0)
(0.865736 -0.000326308 0)
(0.865799 -0.000280269 0)
(0.864665 -0.000284273 0)
(0.904918 0.0784956 0)
(1.0368 0.00399368 0)
(0.95602 -0.000228144 0)
(1.00199 0.00153503 0)
(0.972221 0.00011998 0)
(0.989494 0.000958112 0)
(0.977722 0.000329309 0)
(0.984429 0.000644232 0)
(0.979794 0.000389518 0)
(0.982446 0.00051172 0)
(0.980639 0.000412691 0)
(0.981696 0.000461818 0)
(0.980993 0.000424259 0)
(0.981414 0.000444412 0)
(0.981141 0.000430024 0)
(0.981308 0.000438211 0)
(0.981201 0.000432662 0)
(0.981267 0.000435931 0)
(0.981225 0.00043379 0)
(0.981251 0.000435091 0)
(0.981235 0.000434267 0)
(0.981245 0.000434804 0)
(0.981238 0.000434489 0)
(0.981242 0.000434656 0)
(0.98124 0.000434535 0)
(0.981242 0.000434612 0)
(0.981241 0.000434577 0)
(0.981241 0.00043459 0)
(0.981241 0.000434585 0)
(0.981241 0.00043461 0)
(0.981241 0.0004346 0)
(0.981241 0.000434586 0)
(0.981241 0.000434595 0)
(0.981241 0.000434575 0)
(0.981241 0.000434585 0)
(0.981241 0.000434586 0)
(0.981241 0.000434579 0)
(0.981241 0.000434563 0)
(0.981241 0.000434593 0)
(0.981241 0.000434598 0)
(0.981241 0.00043458 0)
(0.981241 0.000434569 0)
(0.981241 0.000434589 0)
(0.981241 0.000434589 0)
(0.981241 0.000434586 0)
(0.981241 0.000434562 0)
(0.981241 0.000434582 0)
(0.981241 0.000434589 0)
(0.981241 0.000434577 0)
(0.981241 0.000434568 0)
(0.981241 0.000434582 0)
(0.981241 0.000434582 0)
(0.981241 0.000434594 0)
(0.981241 0.000434581 0)
(0.981241 0.000434575 0)
(0.981241 0.000434584 0)
(0.981241 0.000434598 0)
(0.981241 0.000434584 0)
(0.981241 0.000434586 0)
(0.981241 0.000434591 0)
(0.981241 0.000434587 0)
(0.981241 0.000434584 0)
(0.981241 0.000434591 0)
(0.981241 0.000434585 0)
(0.981241 0.000434585 0)
(0.981241 0.000434564 0)
(0.981241 0.000434597 0)
(0.981241 0.0004346 0)
(0.981241 0.000434571 0)
(0.981241 0.000434576 0)
(0.981241 0.000434597 0)
(0.981241 0.0004346 0)
(0.981241 0.000434594 0)
(0.981241 0.000434584 0)
(0.981241 0.000434582 0)
(0.981241 0.000434588 0)
(0.981241 0.000434592 0)
(0.981241 0.00043459 0)
(0.981241 0.000434586 0)
(0.981241 0.000434587 0)
(0.981241 0.000434583 0)
(0.981241 0.000434577 0)
(0.981241 0.000434583 0)
(0.981241 0.000434583 0)
(0.981241 0.000434584 0)
(0.981241 0.000434582 0)
(0.981241 0.000434588 0)
(0.981241 0.000434588 0)
(0.981241 0.000434599 0)
(0.981241 0.000434605 0)
(0.981241 0.000434652 0)
(0.981241 0.000434689 0)
(0.981239 0.000434893 0)
(0.981239 0.000435114 0)
(0.981233 0.000436009 0)
(0.981227 0.000436231 0)
(0.981219 0.000440073 0)
(0.981164 0.000434252 0)
(0.981224 0.000531824 0)
(0.979619 0.000668544 0)
(0.93638 0.0744561 0)
(1.077 0.00425604 0)
(0.991997 -0.00044375 0)
(1.0415 0.00161033 0)
(1.0097 -0.000117047 0)
(1.0284 0.000907817 0)
(1.01583 0.000115614 0)
(1.02309 0.000503607 0)
(1.01814 0.000178641 0)
(1.021 0.000325384 0)
(1.01907 0.000200382 0)
(1.02021 0.000259929 0)
(1.01945 0.000212305 0)
(1.01991 0.000236888 0)
(1.01961 0.000218798 0)
(1.01979 0.000228857 0)
(1.01968 0.000221913 0)
(1.01975 0.000225939 0)
(1.0197 0.000223278 0)
(1.01973 0.00022491 0)
(1.01971 0.000223877 0)
(1.01973 0.000224527 0)
(1.01972 0.000224148 0)
(1.01972 0.00022436 0)
(1.01972 0.000224205 0)
(1.01972 0.000224288 0)
(1.01972 0.000224251 0)
(1.01972 0.000224277 0)
(1.01972 0.000224262 0)
(1.01972 0.000224293 0)
(1.01972 0.000224287 0)
(1.01972 0.000224261 0)
(1.01972 0.00022428 0)
(1.01972 0.000224257 0)
(1.01972 0.000224252 0)
(1.01972 0.000224248 0)
(1.01972 0.00022426 0)
(1.01972 0.000224246 0)
(1.01972 0.000224269 0)
(1.01972 0.000224272 0)
(1.01972 0.000224263 0)
(1.01972 0.000224249 0)
(1.01972 0.000224263 0)
(1.01972 0.000224255 0)
(1.01972 0.000224261 0)
(1.01972 0.000224238 0)
(1.01972 0.000224255 0)
(1.01972 0.000224258 0)
(1.01972 0.000224249 0)
(1.01972 0.000224243 0)
(1.01972 0.00022426 0)
(1.01972 0.000224254 0)
(1.01972 0.000224268 0)
(1.01972 0.000224257 0)
(1.01972 0.000224252 0)
(1.01972 0.000224259 0)
(1.01972 0.000224281 0)
(1.01972 0.000224265 0)
(1.01972 0.00022426 0)
(1.01972 0.000224265 0)
(1.01972 0.000224265 0)
(1.01972 0.00022426 0)
(1.01972 0.000224263 0)
(1.01972 0.000224256 0)
(1.01972 0.000224261 0)
(1.01972 0.000224243 0)
(1.01972 0.000224271 0)
(1.01972 0.000224276 0)
(1.01972 0.000224245 0)
(1.01972 0.000224253 0)
(1.01972 0.000224278 0)
(1.01972 0.000224279 0)
(1.01972 0.000224272 0)
(1.01972 0.00022426 0)
(1.01972 0.000224257 0)
(1.01972 0.000224263 0)
(1.01972 0.000224271 0)
(1.01972 0.000224271 0)
(1.01972 0.000224261 0)
(1.01972 0.000224259 0)
(1.01972 0.000224259 0)
(1.01972 0.000224251 0)
(1.01972 0.000224254 0)
(1.01972 0.000224254 0)
(1.01972 0.000224261 0)
(1.01972 0.000224258 0)
(1.01972 0.000224263 0)
(1.01972 0.000224265 0)
(1.01972 0.000224281 0)
(1.01972 0.000224291 0)
(1.01972 0.00022436 0)
(1.01972 0.000224426 0)
(1.01972 0.000224729 0)
(1.01972 0.000225069 0)
(1.01971 0.000226414 0)
(1.01971 0.000226745 0)
(1.0197 0.000233317 0)
(1.01964 0.000225244 0)
(1.0197 0.00038641 0)
(1.01802 0.000700191 0)
(0.944903 0.0691572 0)
(1.09032 0.00423967 0)
(1.00289 -0.000611419 0)
(1.05482 0.00158644 0)
(1.02169 -0.000302935 0)
(1.04142 0.000823815 0)
(1.02834 -6.02721e-05 0)
(1.03601 0.000369904 0)
(1.03085 -2.71563e-06 0)
(1.03387 0.000159546 0)
(1.03185 1.44092e-05 0)
(1.03305 8.08234e-05 0)
(1.03227 2.50643e-05 0)
(1.03274 5.23691e-05 0)
(1.03243 3.16857e-05 0)
(1.03262 4.29238e-05 0)
(1.0325 3.50334e-05 0)
(1.03258 3.95621e-05 0)
(1.03253 3.65232e-05 0)
(1.03256 3.83676e-05 0)
(1.03254 3.72054e-05 0)
(1.03255 3.79317e-05 0)
(1.03254 3.75047e-05 0)
(1.03255 3.77454e-05 0)
(1.03255 3.75714e-05 0)
(1.03255 3.76504e-05 0)
(1.03255 3.76128e-05 0)
(1.03255 3.76576e-05 0)
(1.03255 3.76289e-05 0)
(1.03255 3.76592e-05 0)
(1.03255 3.76672e-05 0)
(1.03255 3.76373e-05 0)
(1.03255 3.76498e-05 0)
(1.03255 3.76216e-05 0)
(1.03255 3.76131e-05 0)
(1.03255 3.76078e-05 0)
(1.03255 3.7626e-05 0)
(1.03255 3.76146e-05 0)
(1.03255 3.76356e-05 0)
(1.03255 3.76403e-05 0)
(1.03255 3.7635e-05 0)
(1.03255 3.76141e-05 0)
(1.03255 3.76279e-05 0)
(1.03255 3.76139e-05 0)
(1.03255 3.76248e-05 0)
(1.03255 3.76021e-05 0)
(1.03255 3.76176e-05 0)
(1.03255 3.762e-05 0)
(1.03255 3.76125e-05 0)
(1.03255 3.76067e-05 0)
(1.03255 3.76292e-05 0)
(1.03255 3.76205e-05 0)
(1.03255 3.76313e-05 0)
(1.03255 3.76215e-05 0)
(1.03255 3.76205e-05 0)
(1.03255 3.76252e-05 0)
(1.03255 3.76534e-05 0)
(1.03255 3.76337e-05 0)
(1.03255 3.76233e-05 0)
(1.03255 3.76292e-05 0)
(1.03255 3.76337e-05 0)
(1.03255 3.76251e-05 0)
(1.03255 3.76255e-05 0)
(1.03255 3.76175e-05 0)
(1.03255 3.76288e-05 0)
(1.03255 3.76133e-05 0)
(1.03255 3.76357e-05 0)
(1.03255 3.76433e-05 0)
(1.03255 3.76092e-05 0)
(1.03255 3.76185e-05 0)
(1.03255 3.76494e-05 0)
(1.03255 3.76493e-05 0)
(1.03255 3.76377e-05 0)
(1.03255 3.76246e-05 0)
(1.03255 3.76245e-05 0)
(1.03255 3.76293e-05 0)
(1.03255 3.76389e-05 0)
(1.03255 3.76417e-05 0)
(1.03255 3.76276e-05 0)
(1.03255 3.76219e-05 0)
(1.03255 3.76242e-05 0)
(1.03255 3.76149e-05 0)
(1.03255 3.76147e-05 0)
(1.03255 3.76151e-05 0)
(1.03255 3.76273e-05 0)
(1.03255 3.76252e-05 0)
(1.03255 3.76281e-05 0)
(1.03255 3.76327e-05 0)
(1.03255 3.76538e-05 0)
(1.03255 3.76682e-05 0)
(1.03255 3.7756e-05 0)
(1.03255 3.78501e-05 0)
(1.03255 3.82415e-05 0)
(1.03255 3.86914e-05 0)
(1.03254 4.04583e-05 0)
(1.03254 4.08685e-05 0)
(1.03253 5.03586e-05 0)
(1.03247 4.02684e-05 0)
(1.03252 0.0002642 0)
(1.03101 0.00072641 0)
(0.94605 0.0641543 0)
(1.0947 0.00427347 0)
(1.0055 -0.000631213 0)
(1.05938 0.00166105 0)
(1.02521 -0.000340277 0)
(1.04581 0.000859911 0)
(1.03233 -8.5449e-05 0)
(1.04035 0.000365993 0)
(1.03503 -3.4268e-05 0)
(1.03818 0.000137822 0)
(1.03609 -2.15674e-05 0)
(1.03734 4.88608e-05 0)
(1.03653 -1.22704e-05 0)
(1.03702 1.68499e-05 0)
(1.0367 -5.78575e-06 0)
(1.0369 6.25201e-06 0)
(1.03678 -2.37282e-06 0)
(1.03685 2.49701e-06 0)
(1.0368 -8.69274e-07 0)
(1.03683 1.10513e-06 0)
(1.03682 -1.40023e-07 0)
(1.03683 6.47504e-07 0)
(1.03682 1.80687e-07 0)
(1.03682 4.35975e-07 0)
(1.03682 2.52011e-07 0)
(1.03682 3.28468e-07 0)
(1.03682 2.87191e-07 0)
(1.03682 3.49451e-07 0)
(1.03682 3.1106e-07 0)
(1.03682 3.36768e-07 0)
(1.03682 3.59259e-07 0)
(1.03682 3.32145e-07 0)
(1.03682 3.34863e-07 0)
(1.03682 2.96965e-07 0)
(1.03682 2.88859e-07 0)
(1.03682 2.8463e-07 0)
(1.03682 3.04607e-07 0)
(1.03682 2.93393e-07 0)
(1.03682 3.16055e-07 0)
(1.03682 3.25983e-07 0)
(1.03682 3.2252e-07 0)
(1.03682 2.92416e-07 0)
(1.03682 3.05034e-07 0)
(1.03682 2.88899e-07 0)
(1.03682 3.03395e-07 0)
(1.03682 2.79575e-07 0)
(1.03682 2.92927e-07 0)
(1.03682 2.95928e-07 0)
(1.03682 2.90337e-07 0)
(1.03682 2.85266e-07 0)
(1.03682 3.13001e-07 0)
(1.03682 3.02626e-07 0)
(1.03682 3.09266e-07 0)
(1.03682 2.98797e-07 0)
(1.03682 3.03246e-07 0)
(1.03682 3.07351e-07 0)
(1.03682 3.39551e-07 0)
(1.03682 3.16027e-07 0)
(1.03682 2.99861e-07 0)
(1.03682 3.07154e-07 0)
(1.03682 3.15181e-07 0)
(1.03682 3.03915e-07 0)
(1.03682 3.02018e-07 0)
(1.03682 2.93507e-07 0)
(1.03682 3.10396e-07 0)
(1.03682 2.9778e-07 0)
(1.03682 3.14384e-07 0)
(1.03682 3.23117e-07 0)
(1.03682 2.8817e-07 0)
(1.03682 2.97583e-07 0)
(1.03682 3.33182e-07 0)
(1.03682 3.33395e-07 0)
(1.03682 3.17556e-07 0)
(1.03682 3.02963e-07 0)
(1.03682 3.06525e-07 0)
(1.03682 3.12159e-07 0)
(1.03682 3.20447e-07 0)
(1.03682 3.24702e-07 0)
(1.03682 3.08543e-07 0)
(1.03682 2.99668e-07 0)
(1.03682 3.03455e-07 0)
(1.03682 2.93259e-07 0)
(1.03682 2.89822e-07 0)
(1.03682 2.89486e-07 0)
(1.03682 3.07153e-07 0)
(1.03682 3.0695e-07 0)
(1.03682 3.07249e-07 0)
(1.03682 3.13446e-07 0)
(1.03682 3.39764e-07 0)
(1.03682 3.59277e-07 0)
(1.03682 4.63498e-07 0)
(1.03682 5.82147e-07 0)
(1.03682 1.04995e-06 0)
(1.03682 1.61093e-06 0)
(1.03682 3.82053e-06 0)
(1.03681 4.28702e-06 0)
(1.03681 1.67136e-05 0)
(1.03675 4.67086e-06 0)
(1.0368 0.000279109 0)
(1.03553 0.000852551 0)
(0.944956 0.059219 0)
(1.09609 0.00427107 0)
(1.00541 -0.000604799 0)
(1.06098 0.00173857 0)
(1.02593 -0.000328362 0)
(1.0473 0.000919081 0)
(1.03347 -7.23243e-05 0)
(1.04181 0.000394041 0)
(1.03635 -2.72593e-05 0)
(1.03963 0.000149285 0)
(1.03749 -1.84618e-05 0)
(1.03878 5.33551e-05 0)
(1.03794 -1.03854e-05 0)
(1.03845 1.97585e-05 0)
(1.03813 -4.23765e-06 0)
(1.03833 8.26928e-06 0)
(1.0382 -9.11682e-07 0)
(1.03828 4.1466e-06 0)
(1.03823 5.50608e-07 0)
(1.03826 2.60801e-06 0)
(1.03824 1.3159e-06 0)
(1.03825 2.14857e-06 0)
(1.03825 1.65242e-06 0)
(1.03825 1.9108e-06 0)
(1.03825 1.72292e-06 0)
(1.03825 1.80085e-06 0)
(1.03825 1.75498e-06 0)
(1.03825 1.82798e-06 0)
(1.03825 1.78463e-06 0)
(1.03825 1.80709e-06 0)
(1.03825 1.84134e-06 0)
(1.03825 1.81783e-06 0)
(1.03825 1.81196e-06 0)
(1.03825 1.76337e-06 0)
(1.03825 1.75535e-06 0)
(1.03825 1.75295e-06 0)
(1.03825 1.7737e-06 0)
(1.03825 1.76313e-06 0)
(1.03825 1.78755e-06 0)
(1.03825 1.80365e-06 0)
(1.03825 1.80206e-06 0)
(1.03825 1.76209e-06 0)
(1.03825 1.77174e-06 0)
(1.03825 1.75545e-06 0)
(1.03825 1.7737e-06 0)
(1.03825 1.74781e-06 0)
(1.03825 1.75854e-06 0)
(1.03825 1.76221e-06 0)
(1.03825 1.75976e-06 0)
(1.03825 1.75748e-06 0)
(1.03825 1.78866e-06 0)
(1.03825 1.77604e-06 0)
(1.03825 1.77892e-06 0)
(1.03825 1.76805e-06 0)
(1.03825 1.77811e-06 0)
(1.03825 1.78156e-06 0)
(1.03825 1.8161e-06 0)
(1.03825 1.78923e-06 0)
(1.03825 1.76721e-06 0)
(1.03825 1.77576e-06 0)
(1.03825 1.78711e-06 0)
(1.03825 1.77386e-06 0)
(1.03825 1.77017e-06 0)
(1.03825 1.76112e-06 0)
(1.03825 1.78384e-06 0)
(1.03825 1.77331e-06 0)
(1.03825 1.78466e-06 0)
(1.03825 1.79338e-06 0)
(1.03825 1.75836e-06 0)
(1.03825 1.76857e-06 0)
(1.03825 1.80715e-06 0)
(1.03825 1.80717e-06 0)
(1.03825 1.78872e-06 0)
(1.03825 1.77392e-06 0)
(1.03825 1.78037e-06 0)
(1.03825 1.78733e-06 0)
(1.03825 1.79357e-06 0)
(1.03825 1.79815e-06 0)
(1.03825 1.78113e-06 0)
(1.03825 1.76951e-06 0)
(1.03825 1.7743e-06 0)
(1.03825 1.7626e-06 0)
(1.03825 1.7567e-06 0)
(1.03825 1.75539e-06 0)
(1.03825 1.77745e-06 0)
(1.03825 1.77981e-06 0)
(1.03825 1.77785e-06 0)
(1.03825 1.78549e-06 0)
(1.03825 1.81637e-06 0)
(1.03825 1.84125e-06 0)
(1.03825 1.95857e-06 0)
(1.03825 2.09763e-06 0)
(1.03825 2.62745e-06 0)
(1.03825 3.26315e-06 0)
(1.03824 5.90826e-06 0)
(1.03824 6.41315e-06 0)
(1.03823 2.16214e-05 0)
(1.03818 7.77712e-06 0)
(1.03823 0.000323979 0)
(1.03724 0.000985677 0)
(0.943306 0.0543207 0)
(1.09649 0.00418784 0)
(1.00451 -0.000576409 0)
(1.06158 0.00177161 0)
(1.02572 -0.000309831 0)
(1.04781 0.000955414 0)
(1.03368 -5.90407e-05 0)
(1.04231 0.00041321 0)
(1.03673 -2.06729e-05 0)
(1.04012 0.000156675 0)
(1.03793 -1.62113e-05 0)
(1.03927 5.58355e-05 0)
(1.0384 -9.76596e-06 0)
(1.03893 2.06314e-05 0)
(1.0386 -4.07829e-06 0)
(1.03881 8.59213e-06 0)
(1.03867 -8.53432e-07 0)
(1.03876 4.2892e-06 0)
(1.0387 5.83628e-07 0)
(1.03874 2.68408e-06 0)
(1.03872 1.373e-06 0)
(1.03873 2.2307e-06 0)
(1.03872 1.71505e-06 0)
(1.03872 1.96847e-06 0)
(1.03872 1.78253e-06 0)
(1.03872 1.86434e-06 0)
(1.03872 1.81421e-06 0)
(1.03872 1.89108e-06 0)
(1.03872 1.84647e-06 0)
(1.03872 1.86863e-06 0)
(1.03872 1.91144e-06 0)
(1.03872 1.88951e-06 0)
(1.03872 1.87775e-06 0)
(1.03872 1.81989e-06 0)
(1.03872 1.81017e-06 0)
(1.03872 1.80913e-06 0)
(1.03872 1.83109e-06 0)
(1.03872 1.8231e-06 0)
(1.03872 1.84858e-06 0)
(1.03872 1.86951e-06 0)
(1.03872 1.87025e-06 0)
(1.03872 1.82119e-06 0)
(1.03872 1.82632e-06 0)
(1.03872 1.81065e-06 0)
(1.03872 1.83294e-06 0)
(1.03872 1.80443e-06 0)
(1.03872 1.812e-06 0)
(1.03872 1.81675e-06 0)
(1.03872 1.81822e-06 0)
(1.03872 1.82032e-06 0)
(1.03872 1.85372e-06 0)
(1.03872 1.83772e-06 0)
(1.03872 1.83752e-06 0)
(1.03872 1.82742e-06 0)
(1.03872 1.84286e-06 0)
(1.03872 1.84466e-06 0)
(1.03872 1.87998e-06 0)
(1.03872 1.85063e-06 0)
(1.03872 1.82294e-06 0)
(1.03872 1.8324e-06 0)
(1.03872 1.84692e-06 0)
(1.03872 1.83246e-06 0)
(1.03872 1.82743e-06 0)
(1.03872 1.81803e-06 0)
(1.03872 1.84626e-06 0)
(1.03872 1.83715e-06 0)
(1.03872 1.84339e-06 0)
(1.03872 1.85201e-06 0)
(1.03872 1.81714e-06 0)
(1.03872 1.82851e-06 0)
(1.03872 1.86908e-06 0)
(1.03872 1.86823e-06 0)
(1.03872 1.84872e-06 0)
(1.03872 1.83516e-06 0)
(1.03872 1.84352e-06 0)
(1.03872 1.85154e-06 0)
(1.03872 1.85558e-06 0)
(1.03872 1.85997e-06 0)
(1.03872 1.84252e-06 0)
(1.03872 1.82839e-06 0)
(1.03872 1.83406e-06 0)
(1.03872 1.82051e-06 0)
(1.03872 1.8125e-06 0)
(1.03872 1.81042e-06 0)
(1.03872 1.83584e-06 0)
(1.03872 1.84104e-06 0)
(1.03872 1.83736e-06 0)
(1.03872 1.84627e-06 0)
(1.03872 1.88065e-06 0)
(1.03872 1.91069e-06 0)
(1.03872 2.03768e-06 0)
(1.03872 2.19366e-06 0)
(1.03872 2.77441e-06 0)
(1.03872 3.46771e-06 0)
(1.03872 6.38643e-06 0)
(1.03872 6.89662e-06 0)
(1.03871 2.4464e-05 0)
(1.03867 9.159e-06 0)
(1.03872 0.000358475 0)
(1.03801 0.00108379 0)
(0.941638 0.0495222 0)
(1.09657 0.00403375 0)
(1.00341 -0.000548796 0)
(1.06181 0.00176069 0)
(1.02524 -0.000289372 0)
(1.04798 0.000966269 0)
(1.03357 -4.72169e-05 0)
(1.04248 0.00042081 0)
(1.03679 -1.5476e-05 0)
(1.04029 0.000159184 0)
(1.03805 -1.51388e-05 0)
(1.03943 5.57808e-05 0)
(1.03855 -1.04052e-05 0)
(1.0391 1.9569e-05 0)
(1.03875 -5.23875e-06 0)
(1.03897 7.31717e-06 0)
(1.03883 -2.09668e-06 0)
(1.03891 3.03774e-06 0)
(1.03886 -6.42123e-07 0)
(1.03889 1.44601e-06 0)
(1.03887 1.29459e-07 0)
(1.03889 9.8853e-07 0)
(1.03888 4.60188e-07 0)
(1.03888 7.0373e-07 0)
(1.03888 5.2482e-07 0)
(1.03888 6.09965e-07 0)
(1.03888 5.57072e-07 0)
(1.03888 6.32688e-07 0)
(1.03888 5.88683e-07 0)
(1.03888 6.13207e-07 0)
(1.03888 6.62269e-07 0)
(1.03888 6.39439e-07 0)
(1.03888 6.23661e-07 0)
(1.03888 5.59137e-07 0)
(1.03888 5.46165e-07 0)
(1.03888 5.45328e-07 0)
(1.03888 5.69308e-07 0)
(1.03888 5.66099e-07 0)
(1.03888 5.91976e-07 0)
(1.03888 6.15037e-07 0)
(1.03888 6.18428e-07 0)
(1.03888 5.61984e-07 0)
(1.03888 5.6186e-07 0)
(1.03888 5.46735e-07 0)
(1.03888 5.72846e-07 0)
(1.03888 5.41822e-07 0)
(1.03888 5.45884e-07 0)
(1.03888 5.5237e-07 0)
(1.03888 5.58103e-07 0)
(1.03888 5.65093e-07 0)
(1.03888 6.00437e-07 0)
(1.03888 5.80102e-07 0)
(1.03888 5.7738e-07 0)
(1.03888 5.69334e-07 0)
(1.03888 5.90086e-07 0)
(1.03888 5.88869e-07 0)
(1.03888 6.23059e-07 0)
(1.03888 5.92233e-07 0)
(1.03888 5.60061e-07 0)
(1.03888 5.69652e-07 0)
(1.03888 5.86959e-07 0)
(1.03888 5.72071e-07 0)
(1.03888 5.66272e-07 0)
(1.03888 5.56819e-07 0)
(1.03888 5.89413e-07 0)
(1.03888 5.81604e-07 0)
(1.03888 5.82647e-07 0)
(1.03888 5.91668e-07 0)
(1.03888 5.57103e-07 0)
(1.03888 5.69331e-07 0)
(1.03888 6.11398e-07 0)
(1.03888 6.09287e-07 0)
(1.03888 5.89649e-07 0)
(1.03888 5.78484e-07 0)
(1.03888 5.88228e-07 0)
(1.03888 5.9676e-07 0)
(1.03888 5.98356e-07 0)
(1.03888 6.026e-07 0)
(1.03888 5.84897e-07 0)
(1.03888 5.68326e-07 0)
(1.03888 5.74691e-07 0)
(1.03888 5.59399e-07 0)
(1.03888 5.49287e-07 0)
(1.03888 5.46861e-07 0)
(1.03888 5.74932e-07 0)
(1.03888 5.82801e-07 0)
(1.03888 5.78001e-07 0)
(1.03888 5.87866e-07 0)
(1.03888 6.24758e-07 0)
(1.03888 6.59691e-07 0)
(1.03888 7.93272e-07 0)
(1.03888 9.6604e-07 0)
(1.03888 1.59755e-06 0)
(1.03888 2.32485e-06 0)
(1.03888 5.33448e-06 0)
(1.03888 5.82111e-06 0)
(1.03887 2.5197e-05 0)
(1.03884 8.82809e-06 0)
(1.03888 0.000380191 0)
(1.03846 0.00114386 0)
(0.94011 0.0448433 0)
(1.09655 0.00382454 0)
(1.00232 -0.000518828 0)
(1.0619 0.00171357 0)
(1.02469 -0.00026632 0)
(1.04803 0.000955595 0)
(1.03338 -3.56506e-05 0)
(1.04253 0.0004191 0)
(1.03675 -1.00613e-05 0)
(1.04035 0.000158725 0)
(1.03807 -1.32716e-05 0)
(1.03949 5.5197e-05 0)
(1.03859 -1.01344e-05 0)
(1.03915 1.88532e-05 0)
(1.0388 -5.55624e-06 0)
(1.03902 6.6377e-06 0)
(1.03888 -2.57898e-06 0)
(1.03897 2.42702e-06 0)
(1.03891 -1.12114e-06 0)
(1.03895 9.20773e-07 0)
(1.03893 -3.68666e-07 0)
(1.03894 4.74035e-07 0)
(1.03893 -4.93579e-08 0)
(1.03894 1.81535e-07 0)
(1.03893 1.30362e-08 0)
(1.03893 9.79251e-08 0)
(1.03893 4.4791e-08 0)
(1.03893 1.15575e-07 0)
(1.03893 7.30442e-08 0)
(1.03893 1.01658e-07 0)
(1.03893 1.56411e-07 0)
(1.03893 1.30982e-07 0)
(1.03893 1.10908e-07 0)
(1.03893 4.20125e-08 0)
(1.03893 2.53476e-08 0)
(1.03893 2.36752e-08 0)
(1.03893 5.07549e-08 0)
(1.03893 5.33957e-08 0)
(1.03893 7.92713e-08 0)
(1.03893 1.01302e-07 0)
(1.03893 1.07496e-07 0)
(1.03893 4.62034e-08 0)
(1.03893 4.08968e-08 0)
(1.03893 2.57813e-08 0)
(1.03893 5.44918e-08 0)
(1.03893 2.14846e-08 0)
(1.03893 2.20765e-08 0)
(1.03893 3.08034e-08 0)
(1.03893 4.10267e-08 0)
(1.03893 5.24223e-08 0)
(1.03893 9.04535e-08 0)
(1.03893 6.50789e-08 0)
(1.03893 6.06672e-08 0)
(1.03893 5.56465e-08 0)
(1.03893 8.19462e-08 0)
(1.03893 7.61537e-08 0)
(1.03893 1.06787e-07 0)
(1.03893 7.52977e-08 0)
(1.03893 4.15461e-08 0)
(1.03893 4.99699e-08 0)
(1.03893 6.88526e-08 0)
(1.03893 5.42092e-08 0)
(1.03893 4.82116e-08 0)
(1.03893 3.90178e-08 0)
(1.03893 7.43389e-08 0)
(1.03893 6.82337e-08 0)
(1.03893 6.39603e-08 0)
(1.03893 7.37739e-08 0)
(1.03893 4.04059e-08 0)
(1.03893 5.29478e-08 0)
(1.03893 9.55257e-08 0)
(1.03893 9.22656e-08 0)
(1.03893 7.30023e-08 0)
(1.03893 6.48056e-08 0)
(1.03893 7.58873e-08 0)
(1.03893 8.44995e-08 0)
(1.03893 8.31833e-08 0)
(1.03893 8.75191e-08 0)
(1.03893 6.97766e-08 0)
(1.03893 5.06619e-08 0)
(1.03893 5.73753e-08 0)
(1.03893 4.08523e-08 0)
(1.03893 2.85931e-08 0)
(1.03893 2.64538e-08 0)
(1.03893 5.64432e-08 0)
(1.03893 6.65782e-08 0)
(1.03893 6.11682e-08 0)
(1.03893 7.14732e-08 0)
(1.03893 1.10024e-07 0)
(1.03893 1.50721e-07 0)
(1.03893 2.88514e-07 0)
(1.03893 4.67601e-07 0)
(1.03893 1.11738e-06 0)
(1.03893 1.82988e-06 0)
(1.03893 4.87981e-06 0)
(1.03893 5.33603e-06 0)
(1.03893 2.59937e-05 0)
(1.03891 8.93825e-06 0)
(1.03894 0.000390998 0)
(1.0388 0.0011693 0)
(0.93876 0.0402737 0)
(1.0965 0.00357035 0)
(1.00131 -0.000485443 0)
(1.06194 0.00163536 0)
(1.02415 -0.000241417 0)
(1.04802 0.000925424 0)
(1.03316 -2.494e-05 0)
(1.04254 0.000408686 0)
(1.03668 -4.87292e-06 0)
(1.04037 0.00015527 0)
(1.03806 -1.09403e-05 0)
(1.03951 5.39421e-05 0)
(1.0386 -9.21194e-06 0)
(1.03917 1.83088e-05 0)
(1.03881 -5.2588e-06 0)
(1.03904 6.35717e-06 0)
(1.0389 -2.52587e-06 0)
(1.03899 2.24391e-06 0)
(1.03893 -1.15026e-06 0)
(1.03897 8.16653e-07 0)
(1.03894 -4.13067e-07 0)
(1.03896 3.9698e-07 0)
(1.03895 -1.01037e-07 0)
(1.03895 1.15008e-07 0)
(1.03895 -3.94957e-08 0)
(1.03895 4.37235e-08 0)
(1.03895 -8.74766e-09 0)
(1.03895 5.65983e-08 0)
(1.03895 1.61015e-08 0)
(1.03895 4.79222e-08 0)
(1.03895 1.06495e-07 0)
(1.03895 7.81044e-08 0)
(1.03895 5.58979e-08 0)
(1.03895 -1.61984e-08 0)
(1.03895 -3.56893e-08 0)
(1.03895 -3.92772e-08 0)
(1.03895 -9.41418e-09 0)
(1.03895 6.42281e-10 0)
(1.03895 2.62502e-08 0)
(1.03895 4.42423e-08 0)
(1.03895 5.31766e-08 0)
(1.03895 -1.11485e-08 0)
(1.03895 -2.08764e-08 0)
(1.03895 -3.70741e-08 0)
(1.03895 -5.98952e-09 0)
(1.03895 -4.011e-08 0)
(1.03895 -4.31813e-08 0)
(1.03895 -3.16792e-08 0)
(1.03895 -1.65623e-08 0)
(1.03895 -1.92093e-09 0)
(1.03895 3.85912e-08 0)
(1.03895 9.31731e-09 0)
(1.03895 3.04839e-09 0)
(1.03895 9.03363e-10 0)
(1.03895 3.16983e-08 0)
(1.03895 2.17598e-08 0)
(1.03895 4.7884e-08 0)
(1.03895 1.60416e-08 0)
(1.03895 -1.91311e-08 0)
(1.03895 -1.19119e-08 0)
(1.03895 9.21044e-09 0)
(1.03895 -4.75295e-09 0)
(1.03895 -1.08355e-08 0)
(1.03895 -1.91756e-08 0)
(1.03895 1.73161e-08 0)
(1.03895 1.33789e-08 0)
(1.03895 3.69353e-09 0)
(1.03895 1.42079e-08 0)
(1.03895 -1.74141e-08 0)
(1.03895 -5.93567e-09 0)
(1.03895 3.73595e-08 0)
(1.03895 3.34655e-08 0)
(1.03895 1.49312e-08 0)
(1.03895 1.00272e-08 0)
(1.03895 2.26233e-08 0)
(1.03895 3.13212e-08 0)
(1.03895 2.64912e-08 0)
(1.03895 3.10436e-08 0)
(1.03895 1.35443e-08 0)
(1.03895 -8.58408e-09 0)
(1.03895 -2.01079e-09 0)
(1.03895 -1.88073e-08 0)
(1.03895 -3.30095e-08 0)
(1.03895 -3.52272e-08 0)
(1.03895 -3.19428e-09 0)
(1.03895 8.47166e-09 0)
(1.03895 3.06198e-09 0)
(1.03895 1.30705e-08 0)
(1.03895 5.267e-08 0)
(1.03895 9.65236e-08 0)
(1.03895 2.34168e-07 0)
(1.03895 4.08056e-07 0)
(1.03895 1.0417e-06 0)
(1.03895 1.7395e-06 0)
(1.03895 4.81626e-06 0)
(1.03895 5.23938e-06 0)
(1.03895 2.65993e-05 0)
(1.03895 9.27866e-06 0)
(1.03896 0.000391192 0)
(1.03909 0.00116241 0)
(0.937587 0.0357988 0)
(1.09644 0.00327857 0)
(1.00039 -0.000448408 0)
(1.06194 0.0015299 0)
(1.02365 -0.000215619 0)
(1.048 0.000877207 0)
(1.03294 -1.57609e-05 0)
(1.04254 0.000389849 0)
(1.03661 -5.08942e-07 0)
(1.04038 0.000148602 0)
(1.03804 -8.68909e-06 0)
(1.03952 5.16481e-05 0)
(1.0386 -8.13141e-06 0)
(1.03918 1.75042e-05 0)
(1.03882 -4.79473e-06 0)
(1.03905 6.05451e-06 0)
(1.0389 -2.33656e-06 0)
(1.03899 2.11593e-06 0)
(1.03894 -1.08019e-06 0)
(1.03897 7.78218e-07 0)
(1.03895 -3.82515e-07 0)
(1.03896 3.73924e-07 0)
(1.03895 -8.8975e-08 0)
(1.03896 1.1025e-07 0)
(1.03896 -2.79017e-08 0)
(1.03896 5.23929e-08 0)
(1.03896 1.33097e-09 0)
(1.03896 6.14687e-08 0)
(1.03896 2.46717e-08 0)
(1.03896 5.68187e-08 0)
(1.03896 1.17523e-07 0)
(1.03896 8.65163e-08 0)
(1.03896 6.4326e-08 0)
(1.03896 -1.03622e-08 0)
(1.03896 -3.13461e-08 0)
(1.03896 -3.70102e-08 0)
(1.03896 -5.24791e-09 0)
(1.03896 1.31352e-08 0)
(1.03896 3.859e-08 0)
(1.03896 5.0295e-08 0)
(1.03896 6.13947e-08 0)
(1.03896 -4.85736e-09 0)
(1.03896 -1.77888e-08 0)
(1.03896 -3.60704e-08 0)
(1.03896 -2.61018e-09 0)
(1.03896 -3.72369e-08 0)
(1.03896 -4.41934e-08 0)
(1.03896 -2.92929e-08 0)
(1.03896 -9.00571e-09 0)
(1.03896 7.48443e-09 0)
(1.03896 4.99784e-08 0)
(1.03896 1.84459e-08 0)
(1.03896 1.02494e-08 0)
(1.03896 1.03304e-08 0)
(1.03896 4.41582e-08 0)
(1.03896 3.10712e-08 0)
(1.03896 5.23747e-08 0)
(1.03896 2.01471e-08 0)
(1.03896 -1.68027e-08 0)
(1.03896 -1.02386e-08 0)
(1.03896 1.38182e-08 0)
(1.03896 7.55399e-10 0)
(1.03896 -4.82663e-09 0)
(1.03896 -1.22614e-08 0)
(1.03896 2.41719e-08 0)
(1.03896 2.27216e-08 0)
(1.03896 8.4199e-09 0)
(1.03896 1.91134e-08 0)
(1.03896 -1.09055e-08 0)
(1.03896 -1.63748e-09 0)
(1.03896 4.30417e-08 0)
(1.03896 3.9201e-08 0)
(1.03896 2.17676e-08 0)
(1.03896 1.97003e-08 0)
(1.03896 3.38866e-08 0)
(1.03896 4.2851e-08 0)
(1.03896 3.41194e-08 0)
(1.03896 3.86542e-08 0)
(1.03896 2.20196e-08 0)
(1.03896 -3.1599e-09 0)
(1.03896 2.74856e-09 0)
(1.03896 -1.39576e-08 0)
(1.03896 -2.97527e-08 0)
(1.03896 -3.25752e-08 0)
(1.03896 1.84078e-09 0)
(1.03896 1.48067e-08 0)
(1.03896 9.18149e-09 0)
(1.03896 1.8517e-08 0)
(1.03896 5.81092e-08 0)
(1.03896 1.02317e-07 0)
(1.03896 2.35368e-07 0)
(1.03896 4.03049e-07 0)
(1.03896 1.01857e-06 0)
(1.03896 1.69519e-06 0)
(1.03896 4.73119e-06 0)
(1.03896 5.11564e-06 0)
(1.03896 2.6529e-05 0)
(1.03897 9.41013e-06 0)
(1.03898 0.000380954 0)
(1.03935 0.00112529 0)
(0.936581 0.0314057 0)
(1.09639 0.00295559 0)