/*--------------------------------*- C++ -*----------------------------------*\
| =========                 |                                                 |
| \\      /  F ield         | OpenFOAM: The Open Source CFD Toolbox           |
|  \\    /   O peration     | Version:  v1906                                 |
|   \\  /    A nd           | Web:      www.OpenFOAM.com                      |
|    \\/     M anipulation  |                                                 |
\*---------------------------------------------------------------------------*/
FoamFile
{
    version     2.0;
    format      ascii;
    class       volScalarField;
    location    "0.5";
    object      Uy;
}
// * * * * * * * * * * * * * * * * * * * * * * * * * * * * * * * * * * * * * //

dimensions      [0 1 -1 0 0 0 0];


internalField   nonuniform List<scalar> 
4000
(
0.0295832
-0.00143021
-0.0021695
-0.00196447
-0.00213022
-0.00203455
-0.00210765
-0.00207062
-0.00210111
-0.00208654
-0.00209839
-0.00209249
-0.00209698
-0.00209456
-0.00209629
-0.00209532
-0.00209596
-0.00209556
-0.00209583
-0.00209569
-0.00209577
-0.0020957
-0.00209575
-0.00209573
-0.00209574
-0.00209573
-0.00209574
-0.00209573
-0.00209573
-0.00209573
-0.00209573
-0.00209573
-0.00209574
-0.00209574
-0.00209573
-0.00209572
-0.00209574
-0.00209574
-0.00209573
-0.00209573
-0.00209574
-0.00209574
-0.00209573
-0.00209573
-0.00209573
-0.00209574
-0.00209573
-0.00209573
-0.00209573
-0.00209574
-0.00209574
-0.00209573
-0.00209573
-0.00209574
-0.00209574
-0.00209573
-0.00209573
-0.00209574
-0.00209573
-0.00209573
-0.00209573
-0.00209573
-0.00209573
-0.00209573
-0.00209573
-0.00209574
-0.00209573
-0.00209573
-0.00209574
-0.00209574
-0.00209573
-0.00209573
-0.00209573
-0.00209573
-0.00209573
-0.00209573
-0.00209573
-0.00209573
-0.00209573
-0.00209573
-0.00209573
-0.00209573
-0.00209573
-0.00209573
-0.00209573
-0.00209573
-0.00209573
-0.00209573
-0.00209573
-0.00209573
-0.00209572
-0.00209572
-0.00209569
-0.00209566
-0.00209553
-0.0020955
-0.00209516
-0.00209621
-0.00208511
-0.00211054
0.0707397
0.00207221
-0.000799874
0.000312749
-0.00053008
-3.06222e-05
-0.000396919
-0.000205167
-0.000356303
-0.000281183
-0.000339804
-0.000309756
-0.000331969
-0.000319719
-0.000328271
-0.000323345
-0.000326617
-0.000324626
-0.000325937
-0.000325183
-0.000325649
-0.000325306
-0.000325515
-0.000325426
-0.000325487
-0.000325433
-0.000325463
-0.000325455
-0.000325453
-0.000325446
-0.000325446
-0.000325442
-0.000325454
-0.000325478
-0.000325445
-0.000325436
-0.000325466
-0.000325485
-0.000325444
-0.000325435
-0.000325463
-0.000325474
-0.000325449
-0.000325439
-0.000325453
-0.000325478
-0.000325456
-0.000325442
-0.000325456
-0.000325473
-0.00032546
-0.000325449
-0.000325443
-0.000325461
-0.000325466
-0.000325452
-0.000325446
-0.00032546
-0.000325455
-0.000325449
-0.000325454
-0.000325456
-0.000325447
-0.00032545
-0.000325455
-0.000325476
-0.000325444
-0.000325441
-0.000325463
-0.000325464
-0.000325449
-0.000325441
-0.000325448
-0.000325458
-0.000325457
-0.00032545
-0.000325452
-0.000325455
-0.000325452
-0.00032545
-0.000325457
-0.00032546
-0.000325453
-0.000325454
-0.000325456
-0.000325456
-0.000325451
-0.000325454
-0.000325447
-0.000325444
-0.000325419
-0.000325407
-0.0003253
-0.000325193
-0.000324737
-0.00032463
-0.000322999
-0.000326308
-0.000280269
-0.000284273
0.0784956
0.00399368
-0.000228144
0.00153503
0.00011998
0.000958112
0.000329309
0.000644232
0.000389518
0.00051172
0.000412691
0.000461818
0.000424259
0.000444412
0.000430024
0.000438211
0.000432662
0.000435931
0.00043379
0.000435091
0.000434267
0.000434804
0.000434489
0.000434656
0.000434535
0.000434612
0.000434577
0.00043459
0.000434585
0.00043461
0.0004346
0.000434586
0.000434595
0.000434575
0.000434585
0.000434586
0.000434579
0.000434563
0.000434593
0.000434598
0.00043458
0.000434569
0.000434589
0.000434589
0.000434586
0.000434562
0.000434582
0.000434589
0.000434577
0.000434568
0.000434582
0.000434582
0.000434594
0.000434581
0.000434575
0.000434584
0.000434598
0.000434584
0.000434586
0.000434591
0.000434587
0.000434584
0.000434591
0.000434585
0.000434585
0.000434564
0.000434597
0.0004346
0.000434571
0.000434576
0.000434597
0.0004346
0.000434594
0.000434584
0.000434582
0.000434588
0.000434592
0.00043459
0.000434586
0.000434587
0.000434583
0.000434577
0.000434583
0.000434583
0.000434584
0.000434582
0.000434588
0.000434588
0.000434599
0.000434605
0.000434652
0.000434689
0.000434893
0.000435114
0.000436009
0.000436231
0.000440073
0.000434252
0.000531824
0.000668544
0.0744561
0.00425604
-0.00044375
0.00161033
-0.000117047
0.000907817
0.000115614
0.000503607
0.000178641
0.000325384
0.000200382
0.000259929
0.000212305
0.000236888
0.000218798
0.000228857
0.000221913
0.000225939
0.000223278
0.00022491
0.000223877
0.000224527
0.000224148
0.00022436
0.000224205
0.000224288
0.000224251
0.000224277
0.000224262
0.000224293
0.000224287
0.000224261
0.00022428
0.000224257
0.000224252
0.000224248
0.00022426
0.000224246
0.000224269
0.000224272
0.000224263
0.000224249
0.000224263
0.000224255
0.000224261
0.000224238
0.000224255
0.000224258
0.000224249
0.000224243
0.00022426
0.000224254
0.000224268
0.000224257
0.000224252
0.000224259
0.000224281
0.000224265
0.00022426
0.000224265
0.000224265
0.00022426
0.000224263
0.000224256
0.000224261
0.000224243
0.000224271
0.000224276
0.000224245
0.000224253
0.000224278
0.000224279
0.000224272
0.00022426
0.000224257
0.000224263
0.000224271
0.000224271
0.000224261
0.000224259
0.000224259
0.000224251
0.000224254
0.000224254
0.000224261
0.000224258
0.000224263
0.000224265
0.000224281
0.000224291
0.00022436
0.000224426
0.000224729
0.000225069
0.000226414
0.000226745
0.000233317
0.000225244
0.00038641
0.000700191
0.0691572
0.00423967
-0.000611419
0.00158644
-0.000302935
0.000823815
-6.02721e-05
0.000369904
-2.71563e-06
0.000159546
1.44092e-05
8.08234e-05
2.50643e-05
5.23691e-05
3.16857e-05
4.29238e-05
3.50334e-05
3.95621e-05
3.65232e-05
3.83676e-05
3.72054e-05
3.79317e-05
3.75047e-05
3.77454e-05
3.75714e-05
3.76504e-05
3.76128e-05
3.76576e-05
3.76289e-05
3.76592e-05
3.76672e-05
3.76373e-05
3.76498e-05
3.76216e-05
3.76131e-05
3.76078e-05
3.7626e-05
3.76146e-05
3.76356e-05
3.76403e-05
3.7635e-05
3.76141e-05
3.76279e-05
3.76139e-05
3.76248e-05
3.76021e-05
3.76176e-05
3.762e-05
3.76125e-05
3.76067e-05
3.76292e-05
3.76205e-05
3.76313e-05
3.76215e-05
3.76205e-05
3.76252e-05
3.76534e-05
3.76337e-05
3.76233e-05
3.76292e-05
3.76337e-05
3.76251e-05
3.76255e-05
3.76175e-05
3.76288e-05
3.76133e-05
3.76357e-05
3.76433e-05
3.76092e-05
3.76185e-05
3.76494e-05
3.76493e-05
3.76377e-05
3.76246e-05
3.76245e-05
3.76293e-05
3.76389e-05
3.76417e-05
3.76276e-05
3.76219e-05
3.76242e-05
3.76149e-05
3.76147e-05
3.76151e-05
3.76273e-05
3.76252e-05
3.76281e-05
3.76327e-05
3.76538e-05
3.76682e-05
3.7756e-05
3.78501e-05
3.82415e-05
3.86914e-05
4.04583e-05
4.08685e-05
5.03586e-05
4.02684e-05
0.0002642
0.00072641
0.0641543
0.00427347
-0.000631213
0.00166105
-0.000340277
0.000859911
-8.5449e-05
0.000365993
-3.4268e-05
0.000137822
-2.15674e-05
4.88608e-05
-1.22704e-05
1.68499e-05
-5.78575e-06
6.25201e-06
-2.37282e-06
2.49701e-06
-8.69274e-07
1.10513e-06
-1.40023e-07
6.47504e-07
1.80687e-07
4.35975e-07
2.52011e-07
3.28468e-07
2.87191e-07
3.49451e-07
3.1106e-07
3.36768e-07
3.59259e-07
3.32145e-07
3.34863e-07
2.96965e-07
2.88859e-07
2.8463e-07
3.04607e-07
2.93393e-07
3.16055e-07
3.25983e-07
3.2252e-07
2.92416e-07
3.05034e-07
2.88899e-07
3.03395e-07
2.79575e-07
2.92927e-07
2.95928e-07
2.90337e-07
2.85266e-07
3.13001e-07
3.02626e-07
3.09266e-07
2.98797e-07
3.03246e-07
3.07351e-07
3.39551e-07
3.16027e-07
2.99861e-07
3.07154e-07
3.15181e-07
3.03915e-07
3.02018e-07
2.93507e-07
3.10396e-07
2.9778e-07
3.14384e-07
3.23117e-07
2.8817e-07
2.97583e-07
3.33182e-07
3.33395e-07
3.17556e-07
3.02963e-07
3.06525e-07
3.12159e-07
3.20447e-07
3.24702e-07
3.08543e-07
2.99668e-07
3.03455e-07
2.93259e-07
2.89822e-07
2.89486e-07
3.07153e-07
3.0695e-07
3.07249e-07
3.13446e-07
3.39764e-07
3.59277e-07
4.63498e-07
5.82147e-07
1.04995e-06
1.61093e-06
3.82053e-06
4.28702e-06
1.67136e-05
4.67086e-06
0.000279109
0.000852551
0.059219
0.00427107
-0.000604799
0.00173857
-0.000328362
0.000919081
-7.23243e-05
0.000394041
-2.72593e-05
0.000149285
-1.84618e-05
5.33551e-05
-1.03854e-05
1.97585e-05
-4.23765e-06
8.26928e-06
-9.11682e-07
4.1466e-06
5.50608e-07
2.60801e-06
1.3159e-06
2.14857e-06
1.65242e-06
1.9108e-06
1.72292e-06
1.80085e-06
1.75498e-06
1.82798e-06
1.78463e-06
1.80709e-06
1.84134e-06
1.81783e-06
1.81196e-06
1.76337e-06
1.75535e-06
1.75295e-06
1.7737e-06
1.76313e-06
1.78755e-06
1.80365e-06
1.80206e-06
1.76209e-06
1.77174e-06
1.75545e-06
1.7737e-06
1.74781e-06
1.75854e-06
1.76221e-06
1.75976e-06
1.75748e-06
1.78866e-06
1.77604e-06
1.77892e-06
1.76805e-06
1.77811e-06
1.78156e-06
1.8161e-06
1.78923e-06
1.76721e-06
1.77576e-06
1.78711e-06
1.77386e-06
1.77017e-06
1.76112e-06
1.78384e-06
1.77331e-06
1.78466e-06
1.79338e-06
1.75836e-06
1.76857e-06
1.80715e-06
1.80717e-06
1.78872e-06
1.77392e-06
1.78037e-06
1.78733e-06
1.79357e-06
1.79815e-06
1.78113e-06
1.76951e-06
1.7743e-06
1.7626e-06
1.7567e-06
1.75539e-06
1.77745e-06
1.77981e-06
1.77785e-06
1.78549e-06
1.81637e-06
1.84125e-06
1.95857e-06
2.09763e-06
2.62745e-06
3.26315e-06
5.90826e-06
6.41315e-06
2.16214e-05
7.77712e-06
0.000323979
0.000985677
0.0543207
0.00418784
-0.000576409
0.00177161
-0.000309831
0.000955414
-5.90407e-05
0.00041321
-2.06729e-05
0.000156675
-1.62113e-05
5.58355e-05
-9.76596e-06
2.06314e-05
-4.07829e-06
8.59213e-06
-8.53432e-07
4.2892e-06
5.83628e-07
2.68408e-06
1.373e-06
2.2307e-06
1.71505e-06
1.96847e-06
1.78253e-06
1.86434e-06
1.81421e-06
1.89108e-06
1.84647e-06
1.86863e-06
1.91144e-06
1.88951e-06
1.87775e-06
1.81989e-06
1.81017e-06
1.80913e-06
1.83109e-06
1.8231e-06
1.84858e-06
1.86951e-06
1.87025e-06
1.82119e-06
1.82632e-06
1.81065e-06
1.83294e-06
1.80443e-06
1.812e-06
1.81675e-06
1.81822e-06
1.82032e-06
1.85372e-06
1.83772e-06
1.83752e-06
1.82742e-06
1.84286e-06
1.84466e-06
1.87998e-06
1.85063e-06
1.82294e-06
1.8324e-06
1.84692e-06
1.83246e-06
1.82743e-06
1.81803e-06
1.84626e-06
1.83715e-06
1.84339e-06
1.85201e-06
1.81714e-06
1.82851e-06
1.86908e-06
1.86823e-06
1.84872e-06
1.83516e-06
1.84352e-06
1.85154e-06
1.85558e-06
1.85997e-06
1.84252e-06
1.82839e-06
1.83406e-06
1.82051e-06
1.8125e-06
1.81042e-06
1.83584e-06
1.84104e-06
1.83736e-06
1.84627e-06
1.88065e-06
1.91069e-06
2.03768e-06
2.19366e-06
2.77441e-06
3.46771e-06
6.38643e-06
6.89662e-06
2.4464e-05
9.159e-06
0.000358475
0.00108379
0.0495222
0.00403375
-0.000548796
0.00176069
-0.000289372
0.000966269
-4.72169e-05
0.00042081
-1.5476e-05
0.000159184
-1.51388e-05
5.57808e-05
-1.04052e-05
1.9569e-05
-5.23875e-06
7.31717e-06
-2.09668e-06
3.03774e-06
-6.42123e-07
1.44601e-06
1.29459e-07
9.8853e-07
4.60188e-07
7.0373e-07
5.2482e-07
6.09965e-07
5.57072e-07
6.32688e-07
5.88683e-07
6.13207e-07
6.62269e-07
6.39439e-07
6.23661e-07
5.59137e-07
5.46165e-07
5.45328e-07
5.69308e-07
5.66099e-07
5.91976e-07
6.15037e-07
6.18428e-07
5.61984e-07
5.6186e-07
5.46735e-07
5.72846e-07
5.41822e-07
5.45884e-07
5.5237e-07
5.58103e-07
5.65093e-07
6.00437e-07
5.80102e-07
5.7738e-07
5.69334e-07
5.90086e-07
5.88869e-07
6.23059e-07
5.92233e-07
5.60061e-07
5.69652e-07
5.86959e-07
5.72071e-07
5.66272e-07
5.56819e-07
5.89413e-07
5.81604e-07
5.82647e-07
5.91668e-07
5.57103e-07
5.69331e-07
6.11398e-07
6.09287e-07
5.89649e-07
5.78484e-07
5.88228e-07
5.9676e-07
5.98356e-07
6.026e-07
5.84897e-07
5.68326e-07
5.74691e-07
5.59399e-07
5.49287e-07
5.46861e-07
5.74932e-07
5.82801e-07
5.78001e-07
5.87866e-07
6.24758e-07
6.59691e-07
7.93272e-07
9.6604e-07
1.59755e-06
2.32485e-06
5.33448e-06
5.82111e-06
2.5197e-05
8.82809e-06
0.000380191
0.00114386
0.0448433
0.00382454
-0.000518828
0.00171357
-0.00026632
0.000955595
-3.56506e-05
0.0004191
-1.00613e-05
0.000158725
-1.32716e-05
5.5197e-05
-1.01344e-05
1.88532e-05
-5.55624e-06
6.6377e-06
-2.57898e-06
2.42702e-06
-1.12114e-06
9.20773e-07
-3.68666e-07
4.74035e-07
-4.93579e-08
1.81535e-07
1.30362e-08
9.79251e-08
4.4791e-08
1.15575e-07
7.30442e-08
1.01658e-07
1.56411e-07
1.30982e-07
1.10908e-07
4.20125e-08
2.53476e-08
2.36752e-08
5.07549e-08
5.33957e-08
7.92713e-08
1.01302e-07
1.07496e-07
4.62034e-08
4.08968e-08
2.57813e-08
5.44918e-08
2.14846e-08
2.20765e-08
3.08034e-08
4.10267e-08
5.24223e-08
9.04535e-08
6.50789e-08
6.06672e-08
5.56465e-08
8.19462e-08
7.61537e-08
1.06787e-07
7.52977e-08
4.15461e-08
4.99699e-08
6.88526e-08
5.42092e-08
4.82116e-08
3.90178e-08
7.43389e-08
6.82337e-08
6.39603e-08
7.37739e-08
4.04059e-08
5.29478e-08
9.55257e-08
9.22656e-08
7.30023e-08
6.48056e-08
7.58873e-08
8.44995e-08
8.31833e-08
8.75191e-08
6.97766e-08
5.06619e-08
5.73753e-08
4.08523e-08
2.85931e-08
2.64538e-08
5.64432e-08
6.65782e-08
6.11682e-08
7.14732e-08
1.10024e-07
1.50721e-07
2.88514e-07
4.67601e-07
1.11738e-06
1.82988e-06
4.87981e-06
5.33603e-06
2.59937e-05
8.93825e-06
0.000390998
0.0011693
0.0402737
0.00357035
-0.000485443
0.00163536
-0.000241417
0.000925424
-2.494e-05
0.000408686
-4.87292e-06
0.00015527
-1.09403e-05
5.39421e-05
-9.21194e-06
1.83088e-05
-5.2588e-06
6.35717e-06
-2.52587e-06
2.24391e-06
-1.15026e-06
8.16653e-07
-4.13067e-07
3.9698e-07
-1.01037e-07
1.15008e-07
-3.94957e-08
4.37235e-08
-8.74766e-09
5.65983e-08
1.61015e-08
4.79222e-08
1.06495e-07
7.81044e-08
5.58979e-08
-1.61984e-08
-3.56893e-08
-3.92772e-08
-9.41418e-09
6.42281e-10
2.62502e-08
4.42423e-08
5.31766e-08
-1.11485e-08
-2.08764e-08
-3.70741e-08
-5.98952e-09
-4.011e-08
-4.31813e-08
-3.16792e-08
-1.65623e-08
-1.92093e-09
3.85912e-08
9.31731e-09
3.04839e-09
9.03363e-10
3.16983e-08
2.17598e-08
4.7884e-08
1.60416e-08
-1.91311e-08
-1.19119e-08
9.21044e-09
-4.75295e-09
-1.08355e-08
-1.91756e-08
1.73161e-08
1.33789e-08
3.69353e-09
1.42079e-08
-1.74141e-08
-5.93567e-09
3.73595e-08
3.34655e-08
1.49312e-08
1.00272e-08
2.26233e-08
3.13212e-08
2.64912e-08
3.10436e-08
1.35443e-08
-8.58408e-09
-2.01079e-09
-1.88073e-08
-3.30095e-08
-3.52272e-08
-3.19428e-09
8.47166e-09
3.06198e-09
1.30705e-08
5.267e-08
9.65236e-08
2.34168e-07
4.08056e-07
1.0417e-06
1.7395e-06
4.81626e-06
5.23938e-06
2.65993e-05
9.27866e-06
0.000391192
0.00116241
0.0357988
0.00327857
-0.000448408
0.0015299
-0.000215619
0.000877207
-1.57609e-05
0.000389849
-5.08942e-07
0.000148602
-8.68909e-06
5.16481e-05
-8.13141e-06
1.75042e-05
-4.79473e-06
6.05451e-06
-2.33656e-06
2.11593e-06
-1.08019e-06
7.78218e-07
-3.82515e-07
3.73924e-07
-8.8975e-08
1.1025e-07
-2.79017e-08
5.23929e-08
1.33097e-09
6.14687e-08
2.46717e-08
5.68187e-08
1.17523e-07
8.65163e-08
6.4326e-08
-1.03622e-08
-3.13461e-08
-3.70102e-08
-5.24791e-09
1.31352e-08
3.859e-08
5.0295e-08
6.13947e-08
-4.85736e-09
-1.77888e-08
-3.60704e-08
-2.61018e-09
-3.72369e-08
-4.41934e-08
-2.92929e-08
-9.00571e-09
7.48443e-09
4.99784e-08
1.84459e-08
1.02494e-08
1.03304e-08
4.41582e-08
3.10712e-08
5.23747e-08
2.01471e-08
-1.68027e-08
-1.02386e-08
1.38182e-08
7.55399e-10
-4.82663e-09
-1.22614e-08
2.41719e-08
2.27216e-08
8.4199e-09
1.91134e-08
-1.09055e-08
-1.63748e-09
4.30417e-08
3.9201e-08
2.17676e-08
1.97003e-08
3.38866e-08
4.2851e-08
3.41194e-08
3.86542e-08
2.20196e-08
-3.1599e-09
2.74856e-09
-1.39576e-08
-2.97527e-08
-3.25752e-08
1.84078e-09
1.48067e-08
9.18149e-09
1.8517e-08
5.81092e-08
1.02317e-07
2.35368e-07
4.03049e-07
1.01857e-06
1.69519e-06
4.73119e-06
5.11564e-06
2.6529e-05
9.41013e-06
0.000380954
0.00112529
0.0314057
0.00295559
-0.000407545
0.00140091
-0.000189491
0.000812652
-8.37076e-06
0.000363175
2.81264e-06
0.000138836
-6.70742e-06
4.82719e-05
-7.05095e-06
1.63402e-05
-4.29518e-06
5.62438e-06
-2.12204e-06
1.94835e-06
-9.98169e-07
7.22075e-07
-3.5255e-07
3.33264e-07
-8.48789e-08
9.62446e-08
-2.56841e-08
4.77237e-08
3.26996e-10
5.41991e-08
2.39207e-08
5.34578e-08
1.16279e-07
8.31232e-08
6.00246e-08
-1.63958e-08
-3.76409e-08
-4.42009e-08
-1.08084e-08
1.49285e-08
4.03127e-08
4.44403e-08
5.62591e-08
-1.04083e-08
-2.48828e-08
-4.57465e-08
-1.08215e-08
-4.58678e-08
-5.65852e-08
-3.78113e-08
-1.24472e-08
4.68205e-09
4.92264e-08
1.61846e-08
7.12559e-09
9.13928e-09
4.52644e-08
2.89458e-08
4.46419e-08
1.16816e-08
-2.50016e-08
-1.91041e-08
6.76162e-09
-5.39838e-09
-9.15293e-09
-1.64163e-08
1.91461e-08
2.02396e-08
3.11099e-09
1.34095e-08
-1.54089e-08
-8.42232e-09
3.7389e-08
3.4251e-08
1.83579e-08
1.79198e-08
3.34471e-08
4.28072e-08
3.01684e-08
3.40992e-08
1.92979e-08
-8.14615e-09
-3.46144e-09
-2.06444e-08
-3.77082e-08
-4.08737e-08
-4.37072e-09
1.05023e-08
3.39527e-09
1.2237e-08
5.03641e-08
9.53878e-08
2.21386e-07
3.79377e-07
9.65858e-07
1.60591e-06
4.51614e-06
4.85712e-06
2.56581e-05
9.2154e-06
0.000360887
0.00106045
0.0270828
0.00260705
-0.000362778
0.00125194
-0.000163344
0.000733636
-2.8002e-06
0.000329444
5.06208e-06
0.000126247
-5.02977e-06
4.39092e-05
-5.9934e-06
1.48493e-05
-3.76842e-06
5.08352e-06
-1.88585e-06
1.74841e-06
-9.03986e-07
6.50786e-07
-3.17001e-07
2.85498e-07
-7.89506e-08
8.32075e-08
-2.2582e-08
4.10823e-08
-1.10218e-09
4.56074e-08
2.41612e-08
4.89221e-08
1.1247e-07
7.78812e-08
5.38858e-08
-2.34497e-08
-4.32357e-08
-4.94061e-08
-1.50381e-08
1.63255e-08
4.1091e-08
3.70965e-08
4.82503e-08
-1.71796e-08
-3.11076e-08
-5.50667e-08
-1.97104e-08
-5.46905e-08
-6.89799e-08
-4.62807e-08
-1.59682e-08
7.54972e-10
4.70212e-08
1.36666e-08
4.511e-09
8.04829e-09
4.52701e-08
2.60601e-08
3.62381e-08
2.03474e-09
-3.34574e-08
-2.77415e-08
-4.81003e-10
-1.20086e-08
-1.342e-08
-2.07585e-08
1.37301e-08
1.69548e-08
-1.51305e-09
7.5871e-09
-2.01716e-08
-1.54222e-08
3.12941e-08
2.93491e-08
1.55089e-08
1.57576e-08
3.21247e-08
4.22287e-08
2.58585e-08
2.85293e-08
1.62718e-08
-1.29595e-08
-9.84606e-09
-2.78964e-08
-4.56794e-08
-4.9082e-08
-1.09923e-08
5.88248e-09
-3.11906e-09
5.18867e-09
4.09592e-08
8.60854e-08
2.02185e-07
3.45654e-07
8.87726e-07
1.47594e-06
4.18084e-06
4.47587e-06
2.40178e-05
8.70851e-06
0.000331854
0.000970733
0.0228195
0.00223777
-0.000314229
0.00108624
-0.000137368
0.000642075
1.01914e-06
0.000289499
6.2742e-06
0.000111151
-3.66108e-06
3.86725e-05
-4.97015e-06
1.30708e-05
-3.21777e-06
4.45228e-06
-1.6285e-06
1.52478e-06
-7.95897e-07
5.68048e-07
-2.73113e-07
2.36572e-07
-6.81957e-08
7.43531e-08
-1.51898e-08
3.64327e-08
5.15992e-10
3.92161e-08
2.82997e-08
4.71304e-08
1.0921e-07
7.40518e-08
4.96843e-08
-2.76858e-08
-4.41207e-08
-4.8745e-08
-1.40392e-08
2.03298e-08
4.35834e-08
3.16046e-08
4.13568e-08
-2.13448e-08
-3.25195e-08
-5.98651e-08
-2.56847e-08
-5.97523e-08
-7.71901e-08
-5.10692e-08
-1.59276e-08
-5.6523e-10
4.72953e-08
1.48129e-08
6.25137e-09
1.08283e-08
4.78807e-08
2.59434e-08
3.10777e-08
-4.62846e-09
-3.84634e-08
-3.21911e-08
-3.77312e-09
-1.51145e-08
-1.47079e-08
-2.16048e-08
1.20257e-08
1.66812e-08
-2.5793e-09
4.817e-09
-2.15156e-08
-1.87551e-08
2.81014e-08
2.77736e-08
1.6305e-08
1.69765e-08
3.35349e-08
4.48496e-08
2.50838e-08
2.5913e-08
1.6452e-08
-1.44486e-08
-1.3183e-08
-3.19603e-08
-4.97734e-08
-5.31859e-08
-1.43826e-08
4.00169e-09
-6.42695e-09
1.07585e-09
3.39348e-08
7.80024e-08
1.8141e-07
3.05994e-07
7.89551e-07
1.31312e-06
3.74082e-06
3.98921e-06
2.16665e-05
7.91567e-06
0.000294841
0.000859158
0.0186053
0.00185192
-0.000262203
0.000906818
-0.000111673
0.000539889
3.22943e-06
0.000244222
6.52859e-06
9.38889e-05
-2.59195e-06
3.26769e-05
-3.99261e-06
1.10398e-05
-2.65242e-06
3.74323e-06
-1.35636e-06
1.27915e-06
-6.76401e-07
4.73748e-07
-2.23829e-07
1.86955e-07
-5.50532e-08
6.70372e-08
-5.56513e-09
3.22412e-08
3.20291e-09
3.33142e-08
3.41679e-08
4.60841e-08
1.04063e-07
6.93963e-08
4.56737e-08
-3.0315e-08
-4.20266e-08
-4.44035e-08
-9.81279e-09
2.49941e-08
4.55497e-08
2.63993e-08
3.42876e-08
-2.4818e-08
-3.13311e-08
-6.19357e-08
-3.0522e-08
-6.30045e-08
-8.29361e-08
-5.40523e-08
-1.45199e-08
-1.17953e-09
4.80274e-08
1.74622e-08
1.00537e-08
1.52393e-08
5.10212e-08
2.63615e-08
2.71134e-08
-1.00655e-08
-4.20336e-08
-3.46626e-08
-5.19123e-09
-1.66647e-08
-1.51959e-08
-2.09881e-08
1.21077e-08
1.75404e-08
-2.56534e-09
3.30497e-09
-2.15819e-08
-2.05151e-08
2.58491e-08
2.73908e-08
1.84051e-08
1.96065e-08
3.55854e-08
4.83951e-08
2.58417e-08
2.43646e-08
1.76643e-08
-1.45449e-08
-1.5485e-08
-3.47397e-08
-5.20723e-08
-5.52242e-08
-1.65031e-08
3.02519e-09
-8.44841e-09
-1.88627e-09
2.75816e-08
6.91904e-08
1.57382e-07
2.59554e-07
6.72498e-07
1.12054e-06
3.20683e-06
3.40892e-06
1.86751e-05
6.8637e-06
0.000250921
0.000728863
0.0144306
0.00145316
-0.00020715
0.000716453
-8.63019e-05
0.000429004
4.04006e-06
0.000194535
5.94717e-06
7.4827e-05
-1.79479e-06
2.60461e-05
-3.06501e-06
8.79519e-06
-2.08028e-06
2.96829e-06
-1.07499e-06
1.01281e-06
-5.47757e-07
3.69055e-07
-1.71571e-07
1.37322e-07
-4.09258e-08
5.92313e-08
4.84726e-09
2.76326e-08
5.77732e-09
2.69812e-08
4.01331e-08
4.43509e-08
9.57632e-08
6.27843e-08
4.11067e-08
-3.18638e-08
-3.80123e-08
-3.77879e-08
-3.68704e-09
2.92194e-08
4.55567e-08
2.03134e-08
2.65787e-08
-2.84491e-08
-2.90459e-08
-6.22997e-08
-3.51455e-08
-6.56385e-08
-8.7268e-08
-5.63536e-08
-1.32055e-08
-2.20088e-09
4.81052e-08
2.02971e-08
1.44339e-08
1.9815e-08
5.34594e-08
2.58982e-08
2.30174e-08
-1.5327e-08
-4.52568e-08
-3.65057e-08
-6.15886e-09
-1.78565e-08
-1.59821e-08
-2.01693e-08
1.2712e-08
1.84572e-08
-2.6245e-09
1.95466e-09
-2.16839e-08
-2.19582e-08
2.37981e-08
2.72336e-08
2.06533e-08
2.22735e-08
3.69793e-08
5.13813e-08
2.68711e-08
2.27984e-08
1.85413e-08
-1.43451e-08
-1.76269e-08
-3.73377e-08
-5.38472e-08
-5.64183e-08
-1.84597e-08
1.83875e-09
-1.03217e-08
-4.78871e-09
2.08281e-08
5.86254e-08
1.29379e-07
2.06404e-07
5.38541e-07
9.01826e-07
2.59144e-06
2.74821e-06
1.51329e-05
5.58676e-06
0.000201244
0.000583102
0.0102863
0.00104474
-0.000149633
0.000517757
-6.12384e-05
0.000311354
3.7151e-06
0.000141388
4.68596e-06
5.4351e-05
-1.22552e-06
1.89127e-05
-2.18378e-06
6.38061e-06
-1.50641e-06
2.14046e-06
-7.87607e-07
7.28495e-07
-4.11583e-07
2.56545e-07
-1.17732e-07
8.88016e-08
-2.58921e-08
5.00246e-08
1.55849e-08
2.28073e-08
8.34351e-09
2.02443e-08
4.55377e-08
4.15962e-08
8.44616e-08
5.44227e-08
3.63933e-08
-3.20738e-08
-3.21003e-08
-2.92059e-08
3.94858e-09
3.28789e-08
4.33049e-08
1.31e-08
1.87584e-08
-3.19451e-08
-2.61922e-08
-6.11962e-08
-3.93834e-08
-6.77823e-08
-9.02221e-08
-5.81334e-08
-1.23326e-08
-3.68297e-09
4.75237e-08
2.31383e-08
1.89736e-08
2.41676e-08
5.50788e-08
2.4371e-08
1.85372e-08
-2.04685e-08
-4.81469e-08
-3.79961e-08
-7.04082e-09
-1.88819e-08
-1.72343e-08
-1.93717e-08
1.36143e-08
1.93603e-08
-2.99034e-09
5.54878e-10
-2.19696e-08
-2.32133e-08
2.19606e-08
2.727e-08
2.27196e-08
2.46054e-08
3.7558e-08
5.35042e-08
2.79517e-08
2.12073e-08
1.87874e-08
-1.41054e-08
-1.9602e-08
-3.9794e-08
-5.52914e-08
-5.69313e-08
-2.03117e-08
2.65098e-10
-1.21812e-08
-7.72861e-09
1.36589e-08
4.65112e-08
9.79032e-08
1.47783e-07
3.91003e-07
6.6198e-07
1.91029e-06
2.02292e-06
1.11454e-05
4.12694e-06
0.000147027
0.000425218
0.00616333
0.000629627
-9.02999e-05
0.000313205
-3.64236e-05
0.000188872
2.55799e-06
8.57558e-05
2.92503e-06
3.28602e-05
-8.27704e-07
1.14152e-05
-1.33981e-06
3.84294e-06
-9.33786e-07
1.27353e-06
-4.95862e-07
4.30174e-07
-2.69624e-07
1.39109e-07
-6.32552e-08
4.21902e-08
-9.67465e-09
3.88956e-08
2.61842e-08
1.79377e-08
1.12641e-08
1.3181e-08
4.99414e-08
3.78282e-08
7.08053e-08
4.48494e-08
3.20647e-08
-3.07683e-08
-2.4269e-08
-1.87939e-08
1.27058e-08
3.58748e-08
3.88556e-08
4.74985e-09
1.14587e-08
-3.47672e-08
-2.3097e-08
-5.88948e-08
-4.28433e-08
-6.93283e-08
-9.17623e-08
-5.93852e-08
-1.19455e-08
-5.45525e-09
4.65326e-08
2.60645e-08
2.35051e-08
2.8143e-08
5.59924e-08
2.1921e-08
1.36839e-08
-2.53058e-08
-5.0479e-08
-3.91208e-08
-7.9283e-09
-1.97297e-08
-1.88303e-08
-1.85894e-08
1.48343e-08
2.03546e-08
-3.66171e-09
-9.31419e-10
-2.23309e-08
-2.41442e-08
2.04602e-08
2.7517e-08
2.44533e-08
2.64453e-08
3.74619e-08
5.47849e-08
2.9085e-08
1.98025e-08
1.84154e-08
-1.39417e-08
-2.12699e-08
-4.19198e-08
-5.63713e-08
-5.67278e-08
-2.19324e-08
-1.63068e-09
-1.401e-08
-1.0586e-08
6.23061e-09
3.33341e-08
6.37856e-08
8.52034e-08
2.33767e-07
4.06709e-07
1.18091e-06
1.2505e-06
6.83106e-06
2.53228e-06
8.95308e-05
0.000258626
0.00205312
0.000210581
-2.98579e-05
0.000105175
-1.17688e-05
6.34904e-05
8.97029e-07
2.86271e-05
8.59776e-07
1.07609e-05
-5.3617e-07
3.69658e-06
-5.20393e-07
1.2307e-06
-3.63631e-07
3.82317e-07
-2.00475e-07
1.22815e-07
-1.23981e-07
1.93813e-08
-8.66253e-09
-2.11558e-09
7.98513e-09
2.55906e-08
3.60061e-08
1.28861e-08
1.48212e-08
5.77567e-09
5.29329e-08
3.32119e-08
5.55674e-08
3.45412e-08
2.84186e-08
-2.807e-08
-1.47145e-08
-6.82066e-09
2.1974e-08
3.78909e-08
3.2395e-08
-4.60034e-09
5.07548e-09
-3.65133e-08
-2.01162e-08
-5.58845e-08
-4.52442e-08
-7.01623e-08
-9.20492e-08
-6.02073e-08
-1.20154e-08
-7.38463e-09
4.5305e-08
2.90821e-08
2.78314e-08
3.15653e-08
5.62704e-08
1.87374e-08
8.49261e-09
-2.96871e-08
-5.20736e-08
-3.98574e-08
-8.88284e-09
-2.04402e-08
-2.06088e-08
-1.78508e-08
1.63523e-08
2.14342e-08
-4.62376e-09
-2.54959e-09
-2.27065e-08
-2.4669e-08
1.93335e-08
2.78838e-08
2.57212e-08
2.76549e-08
3.68633e-08
5.52959e-08
3.0216e-08
1.87046e-08
1.74912e-08
-1.39582e-08
-2.25308e-08
-4.35781e-08
-5.70879e-08
-5.58646e-08
-2.32269e-08
-3.75627e-09
-1.58243e-08
-1.32469e-08
-1.32942e-09
1.95431e-08
2.79024e-08
2.0171e-08
7.08937e-08
1.42039e-07
4.22003e-07
4.49303e-07
2.31676e-06
8.54934e-07
3.00547e-05
8.67888e-05
-0.00205284
-0.000209764
3.09523e-05
-0.000104011
1.28309e-05
-6.28588e-05
-9.27212e-07
-2.90008e-05
-1.30594e-06
-1.15372e-05
-2.80157e-07
-4.09721e-06
2.89403e-07
-1.40667e-06
2.04458e-07
-5.17158e-07
9.82186e-08
-1.87842e-07
2.3056e-08
-1.00381e-07
4.57791e-08
-4.39085e-08
2.72122e-08
1.01698e-08
4.43524e-08
7.26147e-09
1.9149e-08
-1.96429e-09
5.41659e-08
2.80547e-08
3.9584e-08
2.38482e-08
2.55422e-08
-2.42993e-08
-3.81445e-09
6.24624e-09
3.09966e-08
3.84627e-08
2.4219e-08
-1.463e-08
-2.29891e-10
-3.69845e-08
-1.75463e-08
-5.2749e-08
-4.64833e-08
-7.01497e-08
-9.13621e-08
-6.07872e-08
-1.24385e-08
-9.36282e-09
4.39256e-08
3.21124e-08
3.1756e-08
3.42628e-08
5.59514e-08
1.50344e-08
3.04634e-09
-3.34873e-08
-5.27756e-08
-4.01642e-08
-9.92204e-09
-2.10618e-08
-2.23845e-08
-1.71887e-08
1.81296e-08
2.25236e-08
-5.84022e-09
-4.32357e-09
-2.30638e-08
-2.47448e-08
1.85973e-08
2.82558e-08
2.64446e-08
2.81456e-08
3.59401e-08
5.5163e-08
3.12462e-08
1.79399e-08
1.61235e-08
-1.42287e-08
-2.33337e-08
-4.46906e-08
-5.74459e-08
-5.4481e-08
-2.41533e-08
-6.00559e-09
-1.76371e-08
-1.5607e-08
-8.88856e-09
5.53128e-09
-8.83146e-09
-4.57905e-08
-9.34912e-08
-1.25797e-07
-3.47094e-07
-3.61811e-07
-2.26518e-06
-8.50496e-07
-3.00838e-05
-8.67995e-05
-0.00616305
-0.000628812
9.13789e-05
-0.000312052
3.74842e-05
-0.000188244
-2.57238e-06
-8.6128e-05
-3.36565e-06
-3.3624e-05
1.35245e-08
-1.18185e-05
1.10552e-06
-4.01932e-06
7.72085e-07
-1.40781e-06
3.99676e-07
-4.95722e-07
1.69228e-07
-2.18232e-07
9.99391e-08
-8.3017e-08
4.79048e-08
-7.03802e-09
5.06366e-08
5.84695e-10
2.42393e-08
-9.89638e-09
5.34344e-08
2.27244e-08
2.37155e-08
1.30066e-08
2.33918e-08
-1.98164e-08
7.95091e-09
1.98263e-08
3.90049e-08
3.71202e-08
1.47556e-08
-2.48275e-08
-4.45962e-09
-3.62117e-08
-1.55518e-08
-5.0022e-08
-4.66368e-08
-6.91339e-08
-8.99765e-08
-6.13427e-08
-1.30538e-08
-1.12744e-08
4.24019e-08
3.49959e-08
3.51161e-08
3.60903e-08
5.50549e-08
1.10344e-08
-2.51434e-09
-3.66011e-08
-5.24484e-08
-3.99889e-08
-1.10369e-08
-2.16291e-08
-2.3975e-08
-1.66124e-08
2.01236e-08
2.35323e-08
-7.2749e-09
-6.23186e-09
-2.33536e-08
-2.43478e-08
1.82597e-08
2.85291e-08
2.6585e-08
2.7894e-08
3.48438e-08
5.45403e-08
3.20524e-08
1.74464e-08
1.44577e-08
-1.47619e-08
-2.36854e-08
-4.5228e-08
-5.74327e-08
-5.27444e-08
-2.47045e-08
-8.24365e-09
-1.94072e-08
-1.75708e-08
-1.62807e-08
-8.36208e-09
-4.54652e-08
-1.11108e-07
-2.55278e-07
-3.9046e-07
-1.1068e-06
-1.16381e-06
-6.78071e-06
-2.52855e-06
-8.95599e-05
-0.000258636
-0.010286
-0.00104393
0.000150682
-0.000516629
6.22919e-05
-0.000310735
-3.70309e-06
-0.000141757
-5.11559e-06
-5.50906e-05
4.1726e-07
-1.93195e-05
1.94376e-06
-6.55768e-06
1.34119e-06
-2.27231e-06
7.02542e-07
-7.94982e-07
3.12456e-07
-3.32398e-07
1.53761e-07
-1.19272e-07
6.96649e-08
-2.55462e-08
5.45292e-08
-7.52462e-09
2.99684e-08
-1.77086e-08
5.07389e-08
1.75459e-08
8.78427e-09
2.1997e-09
2.18613e-08
-1.48917e-08
2.0044e-08
3.32074e-08
4.53464e-08
3.35325e-08
4.55699e-09
-3.45433e-08
-7.71141e-09
-3.44481e-08
-1.41478e-08
-4.80747e-08
-4.59232e-08
-6.69657e-08
-8.80649e-08
-6.20522e-08
-1.36979e-08
-1.29762e-08
4.06859e-08
3.75055e-08
3.77947e-08
3.69407e-08
5.35736e-08
6.95004e-09
-8.00771e-09
-3.89471e-08
-5.0999e-08
-3.92939e-08
-1.22264e-08
-2.21613e-08
-2.52196e-08
-1.61021e-08
2.2268e-08
2.4386e-08
-8.91397e-09
-8.22307e-09
-2.34936e-08
-2.34656e-08
1.83005e-08
2.86065e-08
2.61216e-08
2.69282e-08
3.36671e-08
5.35632e-08
3.2507e-08
1.70813e-08
1.26443e-08
-1.55028e-08
-2.36584e-08
-4.52018e-08
-5.70162e-08
-5.08091e-08
-2.49052e-08
-1.03186e-08
-2.10452e-08
-1.9077e-08
-2.33209e-08
-2.18532e-08
-8.10336e-08
-1.74158e-07
-4.10451e-07
-6.45652e-07
-1.83774e-06
-1.93786e-06
-1.10975e-05
-4.12459e-06
-0.000147056
-0.000425229
-0.0144304
-0.00145237
0.000208156
-0.000715361
8.7337e-05
-0.000428396
-3.99896e-06
-0.000194897
-6.36045e-06
-7.55324e-05
9.99005e-07
-2.64536e-05
2.81832e-06
-8.97314e-06
1.9129e-06
-3.09406e-06
1.00421e-06
-1.08047e-06
4.50892e-07
-4.41143e-07
2.06957e-07
-1.52552e-07
9.18208e-08
-4.48211e-08
5.60689e-08
-1.71647e-08
3.61577e-08
-2.49295e-08
4.63318e-08
1.27642e-08
-4.47635e-09
-8.33118e-09
2.08453e-08
-9.63208e-09
3.19274e-08
4.56359e-08
4.96122e-08
2.76641e-08
-5.71753e-09
-4.30475e-08
-1.01023e-08
-3.20901e-08
-1.32001e-08
-4.70195e-08
-4.46083e-08
-6.35302e-08
-8.56266e-08
-6.29668e-08
-1.42349e-08
-1.42652e-08
3.87346e-08
3.93978e-08
3.97411e-08
3.67879e-08
5.14929e-08
2.98873e-09
-1.32155e-08
-4.04499e-08
-4.83878e-08
-3.8049e-08
-1.34983e-08
-2.26542e-08
-2.59633e-08
-1.55936e-08
2.44649e-08
2.50479e-08
-1.07493e-08
-1.02217e-08
-2.3359e-08
-2.20828e-08
1.86536e-08
2.83971e-08
2.50515e-08
2.53273e-08
3.24543e-08
5.23311e-08
3.25245e-08
1.66707e-08
1.08279e-08
-1.63348e-08
-2.33656e-08
-4.46323e-08
-5.61124e-08
-4.87501e-08
-2.47767e-08
-1.20479e-08
-2.24091e-08
-2.01003e-08
-2.98077e-08