/*--------------------------------*- C++ -*----------------------------------*\
| =========                 |                                                 |
| \\      /  F ield         | OpenFOAM: The Open Source CFD Toolbox           |
|  \\    /   O peration     | Version:  v1906                                 |
|   \\  /    A nd           | Web:      www.OpenFOAM.com                      |
|    \\/     M anipulation  |                                                 |
\*---------------------------------------------------------------------------*/
FoamFile
{
    version     2.0;
    format      ascii;
    class       volVectorField;
    location    "2";
    object      B;
}
// * * * * * * * * * * * * * * * * * * * * * * * * * * * * * * * * * * * * * //

dimensions      [1 0 -2 0 0 -1 0];


internalField   nonuniform List<vector> 
4000
(
(0.483068 20.0438 0)
(0.501094 19.9949 0)
(0.484717 19.9854 0)
(0.490819 19.9846 0)
(0.49177 19.9862 0)
(0.493853 19.9887 0)
(0.494431 19.991 0)
(0.494928 19.9929 0)
(0.495097 19.9943 0)
(0.495234 19.9955 0)
(0.495302 19.9964 0)
(0.495356 19.9971 0)
(0.495388 19.9977 0)
(0.49541 19.9982 0)
(0.495421 19.9986 0)
(0.495426 19.9988 0)
(0.495424 19.9991 0)
(0.495419 19.9993 0)
(0.495411 19.9994 0)
(0.495402 19.9995 0)
(0.495391 19.9996 0)
(0.49538 19.9997 0)
(0.495369 19.9998 0)
(0.495359 19.9998 0)
(0.495349 19.9999 0)
(0.495341 19.9999 0)
(0.495333 19.9999 0)
(0.495326 19.9999 0)
(0.49532 20 0)
(0.495315 20 0)
(0.49531 20 0)
(0.495306 20 0)
(0.495303 20 0)
(0.4953 20 0)
(0.495298 20 0)
(0.495296 20 0)
(0.495295 20 0)
(0.495294 20 0)
(0.495293 20 0)
(0.495292 20 0)
(0.495291 20 0)
(0.495291 20 0)
(0.49529 20 0)
(0.49529 20 0)
(0.49529 20 0)
(0.49529 20 0)
(0.49529 20 0)
(0.49529 20 0)
(0.495289 20 0)
(0.495289 20 0)
(0.495289 20 0)
(0.495289 20 0)
(0.495289 20 0)
(0.495289 20 0)
(0.495289 20 0)
(0.495289 20 0)
(0.495289 20 0)
(0.495289 20 0)
(0.495289 20 0)
(0.495289 20 0)
(0.495289 20 0)
(0.495289 20 0)
(0.495289 20 0)
(0.495289 20 0)
(0.495289 20 0)
(0.495289 20 0)
(0.495289 20 0)
(0.495289 20 0)
(0.495289 20 0)
(0.495289 20 0)
(0.495289 20 0)
(0.495289 20 0)
(0.495289 20 0)
(0.495289 20 0)
(0.495289 20 0)
(0.495289 20 0)
(0.495289 20 0)
(0.495289 20 0)
(0.495289 20 0)
(0.495289 20 0)
(0.495289 20 0)
(0.495289 20 0)
(0.495289 20 0)
(0.495289 20 0)
(0.495289 20 0)
(0.495289 20 0)
(0.495289 20 0)
(0.495289 20 0)
(0.495289 20 0)
(0.495289 20 0)
(0.49529 20 0)
(0.495292 20 0)
(0.495296 20 0)
(0.495305 20 0)
(0.495324 19.9999 0)
(0.495353 19.9999 0)
(0.495402 20 0)
(0.495374 20.0002 0)
(0.495265 20.0005 0)
(0.494406 20.0007 0)
(0.84297 20.0116 0)
(0.895669 19.9668 0)
(0.897654 19.9546 0)
(0.912814 19.954 0)
(0.917298 19.9595 0)
(0.922008 19.967 0)
(0.923967 19.9737 0)
(0.925503 19.9793 0)
(0.926369 19.9838 0)
(0.927056 19.9873 0)
(0.927542 19.99 0)
(0.927929 19.9922 0)
(0.928224 19.9939 0)
(0.928453 19.9953 0)
(0.928627 19.9964 0)
(0.928759 19.9973 0)
(0.928856 19.998 0)
(0.928927 19.9986 0)
(0.928976 19.9991 0)
(0.92901 19.9994 0)
(0.929032 19.9997 0)
(0.929045 20 0)
(0.929051 20.0001 0)
(0.929053 20.0003 0)
(0.929053 20.0004 0)
(0.92905 20.0005 0)
(0.929046 20.0006 0)
(0.929042 20.0006 0)
(0.929037 20.0007 0)
(0.929033 20.0007 0)
(0.929029 20.0007 0)
(0.929025 20.0007 0)
(0.929022 20.0008 0)
(0.929019 20.0008 0)
(0.929017 20.0008 0)
(0.929014 20.0008 0)
(0.929013 20.0008 0)
(0.929011 20.0008 0)
(0.92901 20.0008 0)
(0.929009 20.0008 0)
(0.929008 20.0008 0)
(0.929008 20.0008 0)
(0.929007 20.0008 0)
(0.929007 20.0008 0)
(0.929007 20.0008 0)
(0.929006 20.0008 0)
(0.929006 20.0008 0)
(0.929006 20.0008 0)
(0.929006 20.0008 0)
(0.929006 20.0008 0)
(0.929006 20.0008 0)
(0.929006 20.0008 0)
(0.929006 20.0008 0)
(0.929006 20.0008 0)
(0.929006 20.0008 0)
(0.929006 20.0008 0)
(0.929006 20.0008 0)
(0.929006 20.0008 0)
(0.929006 20.0008 0)
(0.929005 20.0008 0)
(0.929005 20.0008 0)
(0.929005 20.0008 0)
(0.929005 20.0008 0)
(0.929005 20.0008 0)
(0.929005 20.0008 0)
(0.929005 20.0008 0)
(0.929006 20.0008 0)
(0.929006 20.0008 0)
(0.929006 20.0008 0)
(0.929006 20.0008 0)
(0.929006 20.0008 0)
(0.929006 20.0008 0)
(0.929006 20.0008 0)
(0.929006 20.0008 0)
(0.929006 20.0008 0)
(0.929006 20.0008 0)
(0.929005 20.0008 0)
(0.929005 20.0008 0)
(0.929005 20.0008 0)
(0.929005 20.0008 0)
(0.929005 20.0008 0)
(0.929005 20.0008 0)
(0.929006 20.0008 0)
(0.929006 20.0008 0)
(0.929006 20.0008 0)
(0.929007 20.0008 0)
(0.929008 20.0008 0)
(0.929009 20.0008 0)
(0.929012 20.0008 0)
(0.929016 20.0008 0)
(0.929022 20.0008 0)
(0.929034 20.0007 0)
(0.929053 20.0007 0)
(0.929087 20.0007 0)
(0.929148 20.0006 0)
(0.929248 20.0006 0)
(0.929411 20.0008 0)
(0.929531 20.0013 0)
(0.929514 20.0022 0)
(0.927901 20.003 0)
(0.947614 19.9201 0)
(1.01618 19.921 0)
(1.04464 19.9189 0)
(1.06816 19.922 0)
(1.0768 19.9323 0)
(1.08357 19.9447 0)
(1.08688 19.9559 0)
(1.0894 19.9652 0)
(1.09103 19.9725 0)
(1.09233 19.9783 0)
(1.09331 19.9829 0)
(1.0941 19.9866 0)
(1.09472 19.9895 0)
(1.09521 19.9918 0)
(1.09559 19.9936 0)
(1.09589 19.9951 0)
(1.09612 19.9963 0)
(1.0963 19.9973 0)
(1.09643 19.998 0)
(1.09653 19.9986 0)
(1.09661 19.9991 0)
(1.09666 19.9995 0)
(1.0967 19.9998 0)
(1.09673 20.0001 0)
(1.09675 20.0002 0)
(1.09676 20.0004 0)
(1.09677 20.0005 0)
(1.09677 20.0006 0)
(1.09678 20.0007 0)
(1.09678 20.0007 0)
(1.09678 20.0008 0)
(1.09678 20.0008 0)
(1.09678 20.0008 0)
(1.09678 20.0009 0)
(1.09678 20.0009 0)
(1.09677 20.0009 0)
(1.09677 20.0009 0)
(1.09677 20.0009 0)
(1.09677 20.0009 0)
(1.09677 20.0009 0)
(1.09677 20.0009 0)
(1.09677 20.0009 0)
(1.09677 20.0009 0)
(1.09677 20.0009 0)
(1.09677 20.0009 0)
(1.09677 20.0009 0)
(1.09677 20.0009 0)
(1.09677 20.0009 0)
(1.09677 20.0009 0)
(1.09677 20.0009 0)
(1.09677 20.0009 0)
(1.09677 20.0009 0)
(1.09677 20.0009 0)
(1.09677 20.0009 0)
(1.09677 20.0009 0)
(1.09677 20.0009 0)
(1.09677 20.0009 0)
(1.09677 20.0009 0)
(1.09677 20.0009 0)
(1.09677 20.0009 0)
(1.09677 20.0009 0)
(1.09677 20.0009 0)
(1.09677 20.0009 0)
(1.09677 20.0009 0)
(1.09677 20.0009 0)
(1.09677 20.0009 0)
(1.09677 20.0009 0)
(1.09677 20.0009 0)
(1.09677 20.0009 0)
(1.09677 20.0009 0)
(1.09677 20.0009 0)
(1.09677 20.0009 0)
(1.09677 20.0009 0)
(1.09677 20.0009 0)
(1.09677 20.0009 0)
(1.09677 20.0009 0)
(1.09677 20.0009 0)
(1.09677 20.0009 0)
(1.09677 20.0009 0)
(1.09677 20.0009 0)
(1.09677 20.0009 0)
(1.09677 20.0009 0)
(1.09677 20.0009 0)
(1.09677 20.0009 0)
(1.09677 20.0009 0)
(1.09677 20.0009 0)
(1.09678 20.0009 0)
(1.09678 20.0009 0)
(1.09678 20.0009 0)
(1.09679 20.0009 0)
(1.09681 20.0009 0)
(1.09683 20.0008 0)
(1.09687 20.0008 0)
(1.09693 20.0007 0)
(1.09704 20.0006 0)
(1.09722 20.0006 0)
(1.09752 20.0009 0)
(1.09792 20.0016 0)
(1.09826 20.003 0)
(1.09707 20.0044 0)
(0.945998 19.8198 0)
(1.01675 19.8639 0)
(1.06623 19.8785 0)
(1.097 19.8888 0)
(1.10981 19.9051 0)
(1.11839 19.9225 0)
(1.12294 19.938 0)
(1.12634 19.9508 0)
(1.12869 19.9611 0)
(1.13057 19.9691 0)
(1.13203 19.9755 0)
(1.13321 19.9806 0)
(1.13414 19.9847 0)
(1.13489 19.9879 0)
(1.13549 19.9905 0)
(1.13596 19.9926 0)
(1.13632 19.9943 0)
(1.13661 19.9956 0)
(1.13683 19.9967 0)
(1.137 19.9975 0)
(1.13714 19.9982 0)
(1.13724 19.9988 0)
(1.13731 19.9992 0)
(1.13737 19.9995 0)
(1.13741 19.9998 0)
(1.13744 20 0)
(1.13746 20.0002 0)
(1.13748 20.0003 0)
(1.13749 20.0004 0)
(1.1375 20.0005 0)
(1.1375 20.0005 0)
(1.13751 20.0006 0)
(1.13751 20.0006 0)
(1.13751 20.0007 0)
(1.13751 20.0007 0)
(1.13751 20.0007 0)
(1.13752 20.0007 0)
(1.13752 20.0007 0)
(1.13752 20.0007 0)
(1.13752 20.0007 0)
(1.13752 20.0007 0)
(1.13752 20.0008 0)
(1.13752 20.0008 0)
(1.13752 20.0008 0)
(1.13752 20.0008 0)
(1.13752 20.0008 0)
(1.13752 20.0008 0)
(1.13752 20.0008 0)
(1.13752 20.0008 0)
(1.13752 20.0008 0)
(1.13752 20.0008 0)
(1.13752 20.0008 0)
(1.13752 20.0008 0)
(1.13752 20.0008 0)
(1.13752 20.0008 0)
(1.13752 20.0008 0)
(1.13752 20.0008 0)
(1.13752 20.0008 0)
(1.13752 20.0008 0)
(1.13752 20.0008 0)
(1.13752 20.0008 0)
(1.13752 20.0008 0)
(1.13752 20.0008 0)
(1.13752 20.0008 0)
(1.13752 20.0008 0)
(1.13752 20.0008 0)
(1.13752 20.0008 0)
(1.13752 20.0008 0)
(1.13752 20.0008 0)
(1.13752 20.0008 0)
(1.13752 20.0008 0)
(1.13752 20.0008 0)
(1.13752 20.0008 0)
(1.13752 20.0008 0)
(1.13752 20.0008 0)
(1.13752 20.0008 0)
(1.13752 20.0008 0)
(1.13752 20.0008 0)
(1.13752 20.0008 0)
(1.13752 20.0008 0)
(1.13752 20.0008 0)
(1.13752 20.0008 0)
(1.13752 20.0008 0)
(1.13752 20.0008 0)
(1.13752 20.0008 0)
(1.13752 20.0007 0)
(1.13753 20.0007 0)
(1.13753 20.0007 0)
(1.13754 20.0007 0)
(1.13755 20.0007 0)
(1.13757 20.0007 0)
(1.13761 20.0006 0)
(1.13766 20.0005 0)
(1.13775 20.0004 0)
(1.13791 20.0004 0)
(1.13818 20.0003 0)
(1.13866 20.0006 0)
(1.1394 20.0014 0)
(1.14031 20.0032 0)
(1.14035 20.005 0)
(0.901551 19.7277 0)
(0.967285 19.802 0)
(1.03007 19.8349 0)
(1.06648 19.8551 0)
(1.08305 19.8781 0)
(1.09323 19.9007 0)
(1.09888 19.9205 0)
(1.10303 19.9368 0)
(1.106 19.9498 0)
(1.10839 19.9601 0)
(1.11028 19.9683 0)
(1.1118 19.9748 0)
(1.11302 19.98 0)
(1.114 19.9842 0)
(1.11478 19.9875 0)
(1.11541 19.9902 0)
(1.1159 19.9923 0)
(1.11629 19.994 0)
(1.11659 19.9954 0)
(1.11683 19.9965 0)
(1.11701 19.9973 0)
(1.11715 19.998 0)
(1.11726 19.9986 0)
(1.11734 19.999 0)
(1.11741 19.9994 0)
(1.11746 19.9996 0)
(1.11749 19.9999 0)
(1.11752 20 0)
(1.11754 20.0002 0)
(1.11756 20.0003 0)
(1.11757 20.0004 0)
(1.11758 20.0004 0)
(1.11758 20.0005 0)
(1.11759 20.0005 0)
(1.11759 20.0005 0)
(1.11759 20.0006 0)
(1.1176 20.0006 0)
(1.1176 20.0006 0)
(1.1176 20.0006 0)
(1.1176 20.0006 0)
(1.1176 20.0006 0)
(1.1176 20.0006 0)
(1.1176 20.0006 0)
(1.1176 20.0006 0)
(1.1176 20.0006 0)
(1.1176 20.0006 0)
(1.1176 20.0006 0)
(1.1176 20.0006 0)
(1.1176 20.0006 0)
(1.1176 20.0006 0)
(1.1176 20.0006 0)
(1.1176 20.0006 0)
(1.1176 20.0006 0)
(1.1176 20.0006 0)
(1.1176 20.0006 0)
(1.1176 20.0006 0)
(1.1176 20.0006 0)
(1.1176 20.0006 0)
(1.1176 20.0006 0)
(1.1176 20.0006 0)
(1.1176 20.0006 0)
(1.1176 20.0006 0)
(1.1176 20.0006 0)
(1.1176 20.0006 0)
(1.1176 20.0006 0)
(1.1176 20.0006 0)
(1.1176 20.0006 0)
(1.1176 20.0006 0)
(1.1176 20.0006 0)
(1.1176 20.0006 0)
(1.1176 20.0006 0)
(1.1176 20.0006 0)
(1.1176 20.0006 0)
(1.1176 20.0006 0)
(1.1176 20.0006 0)
(1.1176 20.0006 0)
(1.1176 20.0006 0)
(1.1176 20.0006 0)
(1.1176 20.0006 0)
(1.1176 20.0006 0)
(1.1176 20.0006 0)
(1.1176 20.0006 0)
(1.1176 20.0006 0)
(1.1176 20.0006 0)
(1.11761 20.0006 0)
(1.11761 20.0006 0)
(1.11761 20.0006 0)
(1.11762 20.0006 0)
(1.11763 20.0006 0)
(1.11765 20.0005 0)
(1.11768 20.0005 0)
(1.11772 20.0004 0)
(1.11779 20.0003 0)
(1.11791 20.0002 0)
(1.11812 20.0001 0)
(1.11849 20 0)
(1.11914 20.0002 0)
(1.12027 20.0011 0)
(1.12184 20.003 0)
(1.12341 20.0049 0)
(0.841292 19.6468 0)
(0.899102 19.7396 0)
(0.968518 19.7898 0)
(1.00877 19.8213 0)
(1.02843 19.8516 0)
(1.03996 19.8795 0)
(1.04655 19.9035 0)
(1.05132 19.9231 0)
(1.05481 19.9388 0)
(1.05761 19.9513 0)
(1.05984 19.9612 0)
(1.06166 19.9691 0)
(1.06311 19.9754 0)
(1.06429 19.9805 0)
(1.06523 19.9846 0)
(1.06598 19.9878 0)
(1.06657 19.9904 0)
(1.06705 19.9925 0)
(1.06742 19.9942 0)
(1.06771 19.9955 0)
(1.06794 19.9966 0)
(1.06812 19.9974 0)
(1.06826 19.9981 0)
(1.06836 19.9986 0)
(1.06845 19.999 0)
(1.06851 19.9994 0)
(1.06856 19.9996 0)
(1.0686 19.9998 0)
(1.06862 20 0)
(1.06865 20.0001 0)
(1.06866 20.0002 0)
(1.06867 20.0003 0)
(1.06868 20.0004 0)
(1.06869 20.0004 0)
(1.0687 20.0005 0)
(1.0687 20.0005 0)
(1.0687 20.0005 0)
(1.06871 20.0005 0)
(1.06871 20.0005 0)
(1.06871 20.0005 0)
(1.06871 20.0006 0)
(1.06871 20.0006 0)
(1.06871 20.0006 0)
(1.06871 20.0006 0)
(1.06871 20.0006 0)
(1.06871 20.0006 0)
(1.06871 20.0006 0)
(1.06871 20.0006 0)
(1.06871 20.0006 0)
(1.06871 20.0006 0)
(1.06871 20.0006 0)
(1.06871 20.0006 0)
(1.06871 20.0006 0)
(1.06871 20.0006 0)
(1.06871 20.0006 0)
(1.06871 20.0006 0)
(1.06871 20.0006 0)
(1.06871 20.0006 0)
(1.06871 20.0006 0)
(1.06871 20.0006 0)
(1.06871 20.0006 0)
(1.06871 20.0006 0)
(1.06871 20.0006 0)
(1.06871 20.0006 0)
(1.06871 20.0006 0)
(1.06871 20.0006 0)
(1.06871 20.0006 0)
(1.06871 20.0006 0)
(1.06871 20.0006 0)
(1.06871 20.0006 0)
(1.06871 20.0006 0)
(1.06871 20.0006 0)
(1.06871 20.0006 0)
(1.06871 20.0006 0)
(1.06871 20.0006 0)
(1.06871 20.0006 0)
(1.06871 20.0006 0)
(1.06871 20.0006 0)
(1.06871 20.0006 0)
(1.06871 20.0006 0)
(1.06871 20.0006 0)
(1.06871 20.0006 0)
(1.06871 20.0006 0)
(1.06872 20.0006 0)
(1.06872 20.0006 0)
(1.06872 20.0006 0)
(1.06873 20.0005 0)
(1.06874 20.0005 0)
(1.06875 20.0005 0)
(1.06877 20.0005 0)
(1.06881 20.0004 0)
(1.06886 20.0003 0)
(1.06895 20.0002 0)
(1.06909 20.0001 0)
(1.06935 19.9999 0)
(1.06981 19.9998 0)
(1.07064 19.9999 0)
(1.07216 20.0006 0)
(1.0744 20.0024 0)
(1.07746 20.0043 0)
(0.776505 19.5769 0)
(0.825841 19.6792 0)
(0.8969 19.7445 0)
(0.93927 19.7877 0)
(0.961221 19.8258 0)
(0.97382 19.8589 0)
(0.981151 19.887 0)
(0.986406 19.9099 0)
(0.990294 19.9282 0)
(0.993416 19.9427 0)
(0.995913 19.9543 0)
(0.997944 19.9636 0)
(0.999584 19.971 0)
(1.00091 19.977 0)
(1.00197 19.9817 0)
(1.00282 19.9856 0)
(1.0035 19.9886 0)
(1.00404 19.991 0)
(1.00447 19.993 0)
(1.00481 19.9946 0)
(1.00507 19.9958 0)
(1.00528 19.9968 0)
(1.00544 19.9976 0)
(1.00556 19.9982 0)
(1.00566 19.9987 0)
(1.00574 19.9991 0)
(1.0058 19.9994 0)
(1.00584 19.9997 0)
(1.00587 19.9999 0)
(1.0059 20 0)
(1.00592 20.0001 0)
(1.00594 20.0002 0)
(1.00595 20.0003 0)
(1.00596 20.0004 0)
(1.00597 20.0004 0)
(1.00597 20.0004 0)
(1.00597 20.0005 0)
(1.00598 20.0005 0)
(1.00598 20.0005 0)
(1.00598 20.0005 0)
(1.00598 20.0005 0)
(1.00598 20.0005 0)
(1.00599 20.0005 0)
(1.00599 20.0005 0)
(1.00599 20.0005 0)
(1.00599 20.0005 0)
(1.00599 20.0005 0)
(1.00599 20.0005 0)
(1.00599 20.0005 0)
(1.00599 20.0005 0)
(1.00599 20.0006 0)
(1.00599 20.0006 0)
(1.00599 20.0006 0)
(1.00599 20.0006 0)
(1.00599 20.0006 0)
(1.00599 20.0006 0)
(1.00599 20.0006 0)
(1.00599 20.0006 0)
(1.00599 20.0006 0)
(1.00599 20.0006 0)
(1.00599 20.0006 0)
(1.00599 20.0006 0)
(1.00599 20.0006 0)
(1.00599 20.0006 0)
(1.00599 20.0006 0)
(1.00599 20.0006 0)
(1.00599 20.0006 0)
(1.00599 20.0006 0)
(1.00599 20.0006 0)
(1.00599 20.0006 0)
(1.00599 20.0006 0)
(1.00599 20.0006 0)
(1.00599 20.0006 0)
(1.00599 20.0006 0)
(1.00599 20.0006 0)
(1.00599 20.0006 0)
(1.00599 20.0006 0)
(1.00599 20.0006 0)
(1.00599 20.0006 0)
(1.00599 20.0005 0)
(1.00599 20.0005 0)
(1.00599 20.0005 0)
(1.00599 20.0005 0)
(1.00599 20.0005 0)
(1.006 20.0005 0)
(1.006 20.0005 0)
(1.00601 20.0005 0)
(1.00602 20.0005 0)
(1.00603 20.0005 0)
(1.00606 20.0004 0)
(1.0061 20.0004 0)
(1.00616 20.0003 0)
(1.00626 20.0001 0)
(1.00643 19.9999 0)
(1.00673 19.9997 0)
(1.00728 19.9995 0)
(1.00828 19.9995 0)
(1.01015 20 0)
(1.01301 20.0015 0)
(1.01732 20.003 0)
(0.711637 19.5167 0)
(0.753054 19.6224 0)
(0.822345 19.7001 0)
(0.8653 19.7549 0)
(0.888727 19.8007 0)
(0.902062 19.8392 0)
(0.909936 19.8713 0)
(0.915531 19.8972 0)
(0.919696 19.918 0)
(0.923037 19.9345 0)
(0.92572 19.9478 0)
(0.927905 19.9583 0)
(0.929673 19.9668 0)
(0.931103 19.9736 0)
(0.932254 19.979 0)
(0.933178 19.9834 0)
(0.933916 19.9869 0)
(0.934503 19.9896 0)
(0.934969 19.9919 0)
(0.935337 19.9937 0)
(0.935627 19.9951 0)
(0.935855 19.9962 0)
(0.936033 19.9971 0)
(0.936173 19.9979 0)
(0.936282 19.9984 0)
(0.936367 19.9989 0)
(0.936432 19.9992 0)
(0.936484 19.9995 0)
(0.936523 19.9997 0)
(0.936554 19.9999 0)
(0.936577 20.0001 0)
(0.936595 20.0002 0)
(0.936609 20.0003 0)
(0.93662 20.0003 0)
(0.936628 20.0004 0)
(0.936634 20.0004 0)
(0.936639 20.0004 0)
(0.936643 20.0005 0)
(0.936646 20.0005 0)
(0.936648 20.0005 0)
(0.936649 20.0005 0)
(0.936651 20.0005 0)
(0.936652 20.0005 0)
(0.936652 20.0005 0)
(0.936653 20.0005 0)
(0.936653 20.0005 0)
(0.936654 20.0005 0)
(0.936654 20.0005 0)
(0.936654 20.0005 0)
(0.936654 20.0005 0)
(0.936654 20.0005 0)
(0.936655 20.0005 0)
(0.936655 20.0005 0)
(0.936654 20.0005 0)
(0.936654 20.0005 0)
(0.936654 20.0005 0)
(0.936654 20.0005 0)
(0.936654 20.0005 0)
(0.936654 20.0005 0)
(0.936654 20.0005 0)
(0.936654 20.0005 0)
(0.936654 20.0005 0)
(0.936654 20.0005 0)
(0.936654 20.0005 0)
(0.936654 20.0005 0)
(0.936654 20.0005 0)
(0.936655 20.0005 0)
(0.936655 20.0005 0)
(0.936655 20.0005 0)
(0.936655 20.0005 0)
(0.936655 20.0005 0)
(0.936655 20.0005 0)
(0.936655 20.0005 0)
(0.936655 20.0005 0)
(0.936655 20.0005 0)
(0.936655 20.0005 0)
(0.936655 20.0005 0)
(0.936655 20.0005 0)
(0.936655 20.0005 0)
(0.936655 20.0005 0)
(0.936656 20.0005 0)
(0.936657 20.0005 0)
(0.936658 20.0005 0)
(0.93666 20.0005 0)
(0.936664 20.0005 0)
(0.936669 20.0005 0)
(0.936676 20.0005 0)
(0.936688 20.0005 0)
(0.936705 20.0004 0)
(0.936732 20.0004 0)
(0.936774 20.0003 0)
(0.936842 20.0002 0)
(0.936953 20 0)
(0.937144 19.9998 0)
(0.93748 19.9995 0)
(0.938107 19.9992 0)
(0.939254 19.999 0)
(0.941437 19.9992 0)
(0.944798 20.0003 0)
(0.950057 20.0013 0)
(0.648222 19.4649 0)
(0.682685 19.57 0)
(0.748037 19.6576 0)
(0.790303 19.7232 0)
(0.814415 19.7766 0)
(0.82814 19.8204 0)
(0.836344 19.8562 0)
(0.842134 19.8851 0)
(0.846458 19.9082 0)
(0.849924 19.9267 0)
(0.852713 19.9415 0)
(0.854986 19.9533 0)
(0.856828 19.9627 0)
(0.858321 19.9703 0)
(0.859525 19.9764 0)
(0.860491 19.9813 0)
(0.861265 19.9852 0)
(0.861881 19.9883 0)
(0.862371 19.9908 0)
(0.862759 19.9928 0)
(0.863065 19.9944 0)
(0.863307 19.9957 0)
(0.863496 19.9967 0)
(0.863645 19.9975 0)
(0.863761 19.9981 0)
(0.863852 19.9987 0)
(0.863923 19.9991 0)
(0.863978 19.9994 0)
(0.864021 19.9996 0)
(0.864054 19.9998 0)
(0.86408 20 0)
(0.8641 20.0001 0)
(0.864115 20.0002 0)
(0.864127 20.0003 0)
(0.864136 20.0003 0)
(0.864143 20.0004 0)
(0.864148 20.0004 0)
(0.864152 20.0004 0)
(0.864155 20.0005 0)
(0.864158 20.0005 0)
(0.86416 20.0005 0)
(0.864161 20.0005 0)
(0.864162 20.0005 0)
(0.864163 20.0005 0)
(0.864164 20.0005 0)
(0.864164 20.0005 0)
(0.864165 20.0005 0)
(0.864165 20.0005 0)
(0.864165 20.0005 0)
(0.864165 20.0005 0)
(0.864166 20.0005 0)
(0.864166 20.0005 0)
(0.864166 20.0005 0)
(0.864166 20.0005 0)
(0.864166 20.0005 0)
(0.864166 20.0005 0)
(0.864165 20.0005 0)
(0.864165 20.0005 0)
(0.864165 20.0005 0)
(0.864165 20.0005 0)
(0.864165 20.0005 0)
(0.864165 20.0005 0)
(0.864165 20.0005 0)
(0.864165 20.0005 0)
(0.864165 20.0005 0)
(0.864166 20.0005 0)
(0.864166 20.0005 0)
(0.864166 20.0005 0)
(0.864166 20.0005 0)
(0.864166 20.0005 0)
(0.864166 20.0005 0)
(0.864166 20.0005 0)
(0.864166 20.0005 0)
(0.864166 20.0005 0)
(0.864166 20.0005 0)
(0.864166 20.0005 0)
(0.864166 20.0005 0)
(0.864166 20.0005 0)
(0.864166 20.0005 0)
(0.864167 20.0005 0)
(0.864167 20.0005 0)
(0.864168 20.0005 0)
(0.86417 20.0005 0)
(0.864172 20.0005 0)
(0.864176 20.0005 0)
(0.864181 20.0005 0)
(0.864189 20.0005 0)
(0.864201 20.0005 0)
(0.864219 20.0004 0)
(0.864248 20.0004 0)
(0.864292 20.0003 0)
(0.864365 20.0001 0)
(0.864484 19.9999 0)
(0.864691 19.9997 0)
(0.865056 19.9993 0)
(0.865746 19.9989 0)
(0.867008 19.9985 0)
(0.869431 19.9983 0)
(0.873172 19.9988 0)
(0.879066 19.9993 0)
(0.586605 19.4204 0)
(0.615145 19.5223 0)
(0.675275 19.6177 0)
(0.715838 19.6931 0)
(0.73991 19.7538 0)
(0.753678 19.8026 0)
(0.761997 19.8421 0)
(0.767839 19.8737 0)
(0.772209 19.899 0)
(0.775707 19.9193 0)
(0.778525 19.9355 0)
(0.780824 19.9485 0)
(0.782691 19.9589 0)
(0.784205 19.9672 0)
(0.785426 19.9739 0)
(0.786409 19.9793 0)
(0.787196 19.9836 0)
(0.787824 19.987 0)
(0.788323 19.9898 0)
(0.788719 19.992 0)
(0.789033 19.9938 0)
(0.78928 19.9952 0)
(0.789475 19.9963 0)
(0.789628 19.9972 0)
(0.789747 19.9979 0)
(0.789841 19.9984 0)
(0.789915 19.9989 0)
(0.789972 19.9992 0)
(0.790017 19.9995 0)
(0.790051 19.9997 0)
(0.790078 19.9999 0)
(0.790099 20.0001 0)
(0.790115 20.0002 0)
(0.790128 20.0002 0)
(0.790137 20.0003 0)
(0.790145 20.0004 0)
(0.790151 20.0004 0)
(0.790155 20.0004 0)
(0.790158 20.0005 0)
(0.790161 20.0005 0)
(0.790163 20.0005 0)
(0.790165 20.0005 0)
(0.790166 20.0005 0)
(0.790167 20.0005 0)
(0.790167 20.0005 0)
(0.790168 20.0005 0)
(0.790168 20.0005 0)
(0.790169 20.0005 0)
(0.790169 20.0005 0)
(0.790169 20.0005 0)
(0.790169 20.0005 0)
(0.790169 20.0005 0)
(0.790169 20.0005 0)
(0.790169 20.0005 0)
(0.790169 20.0005 0)
(0.790169 20.0005 0)
(0.790169 20.0005 0)
(0.790169 20.0005 0)
(0.790169 20.0005 0)
(0.790169 20.0005 0)
(0.790169 20.0005 0)
(0.790169 20.0005 0)
(0.790169 20.0005 0)
(0.790169 20.0005 0)
(0.790169 20.0005 0)
(0.790169 20.0005 0)
(0.790169 20.0005 0)
(0.790169 20.0005 0)
(0.79017 20.0005 0)
(0.79017 20.0005 0)
(0.79017 20.0005 0)
(0.79017 20.0005 0)
(0.79017 20.0005 0)
(0.79017 20.0005 0)
(0.79017 20.0005 0)
(0.79017 20.0005 0)
(0.79017 20.0005 0)
(0.79017 20.0005 0)
(0.79017 20.0005 0)
(0.79017 20.0005 0)
(0.790171 20.0005 0)
(0.790172 20.0005 0)
(0.790174 20.0005 0)
(0.790176 20.0005 0)
(0.79018 20.0005 0)
(0.790185 20.0005 0)
(0.790193 20.0005 0)
(0.790206 20.0004 0)
(0.790224 20.0004 0)
(0.790254 20.0003 0)
(0.7903 20.0002 0)
(0.790375 20.0001 0)
(0.790499 19.9999 0)
(0.790716 19.9996 0)
(0.791103 19.9991 0)
(0.791835 19.9986 0)
(0.793178 19.9979 0)
(0.795761 19.9974 0)
(0.799744 19.9971 0)
(0.805982 19.997 0)
(0.526678 19.3821 0)
(0.550241 19.4795 0)
(0.604473 19.5807 0)
(0.64255 19.6649 0)
(0.665942 19.7324 0)
(0.679419 19.786 0)
(0.687644 19.8289 0)
(0.693397 19.8631 0)
(0.697706 19.8905 0)
(0.70115 19.9124 0)
(0.703927 19.9299 0)
(0.706194 19.944 0)
(0.708036 19.9553 0)
(0.709531 19.9644 0)
(0.710739 19.9716 0)
(0.711711 19.9774 0)
(0.712491 19.9821 0)
(0.713113 19.9858 0)
(0.713609 19.9888 0)
(0.714003 19.9912 0)
(0.714314 19.9931 0)
(0.714561 19.9947 0)
(0.714755 19.9959 0)
(0.714907 19.9969 0)
(0.715027 19.9976 0)
(0.715121 19.9982 0)
(0.715195 19.9987 0)
(0.715253 19.9991 0)
(0.715298 19.9994 0)
(0.715333 19.9997 0)
(0.71536 19.9999 0)
(0.715381 20 0)
(0.715398 20.0001 0)
(0.71541 20.0002 0)
(0.71542 20.0003 0)
(0.715428 20.0003 0)
(0.715434 20.0004 0)
(0.715438 20.0004 0)
(0.715442 20.0004 0)
(0.715445 20.0005 0)
(0.715447 20.0005 0)
(0.715448 20.0005 0)
(0.715449 20.0005 0)
(0.71545 20.0005 0)
(0.715451 20.0005 0)
(0.715452 20.0005 0)
(0.715452 20.0005 0)
(0.715453 20.0005 0)
(0.715453 20.0005 0)
(0.715453 20.0005 0)
(0.715453 20.0005 0)
(0.715453 20.0005 0)
(0.715453 20.0005 0)
(0.715453 20.0005 0)
(0.715453 20.0005 0)
(0.715453 20.0005 0)
(0.715453 20.0005 0)
(0.715453 20.0005 0)
(0.715453 20.0005 0)
(0.715453 20.0005 0)
(0.715453 20.0005 0)
(0.715453 20.0005 0)
(0.715453 20.0005 0)
(0.715453 20.0005 0)
(0.715453 20.0005 0)
(0.715453 20.0005 0)
(0.715453 20.0005 0)
(0.715453 20.0005 0)
(0.715453 20.0005 0)
(0.715454 20.0005 0)
(0.715454 20.0005 0)
(0.715454 20.0005 0)
(0.715454 20.0005 0)
(0.715454 20.0005 0)
(0.715454 20.0005 0)
(0.715454 20.0005 0)
(0.715454 20.0005 0)
(0.715454 20.0005 0)
(0.715454 20.0005 0)
(0.715454 20.0005 0)
(0.715455 20.0005 0)
(0.715456 20.0005 0)
(0.715458 20.0005 0)
(0.71546 20.0005 0)
(0.715464 20.0005 0)
(0.715469 20.0005 0)
(0.715477 20.0005 0)
(0.715489 20.0004 0)
(0.715508 20.0004 0)
(0.715537 20.0003 0)
(0.715584 20.0002 0)
(0.715659 20 0)
(0.715785 19.9998 0)
(0.716007 19.9994 0)
(0.716404 19.9989 0)
(0.717159 19.9983 0)
(0.718543 19.9974 0)
(0.721203 19.9963 0)
(0.725286 19.9953 0)
(0.731607 19.9945 0)
(0.468197 19.3492 0)
(0.487589 19.4416 0)
(0.53564 19.547 0)
(0.570644 19.6389 0)
(0.592805 19.7126 0)
(0.605684 19.7707 0)
(0.613613 19.8167 0)
(0.619147 19.8533 0)
(0.623293 19.8826 0)
(0.626601 19.906 0)
(0.629272 19.9248 0)
(0.631452 19.9399 0)
(0.633225 19.952 0)
(0.634665 19.9617 0)
(0.63583 19.9695 0)
(0.636768 19.9757 0)
(0.63752 19.9807 0)
(0.638122 19.9847 0)
(0.638601 19.988 0)
(0.638982 19.9905 0)
(0.639284 19.9926 0)
(0.639523 19.9942 0)
(0.639711 19.9955 0)
(0.639859 19.9966 0)
(0.639976 19.9974 0)
(0.640068 19.9981 0)
(0.64014 19.9986 0)
(0.640196 19.999 0)
(0.64024 19.9993 0)
(0.640274 19.9996 0)
(0.640301 19.9998 0)
(0.640322 20 0)
(0.640338 20.0001 0)
(0.640351 20.0002 0)
(0.640361 20.0003 0)
(0.640368 20.0003 0)
(0.640374 20.0004 0)
(0.640378 20.0004 0)
(0.640382 20.0004 0)
(0.640385 20.0005 0)
(0.640387 20.0005 0)
(0.640388 20.0005 0)
(0.64039 20.0005 0)
(0.640391 20.0005 0)
(0.640391 20.0005 0)
(0.640392 20.0005 0)
(0.640392 20.0005 0)
(0.640393 20.0005 0)
(0.640393 20.0005 0)
(0.640393 20.0005 0)
(0.640393 20.0005 0)
(0.640393 20.0005 0)
(0.640393 20.0005 0)
(0.640393 20.0005 0)
(0.640393 20.0005 0)
(0.640393 20.0005 0)
(0.640393 20.0005 0)
(0.640393 20.0005 0)
(0.640393 20.0005 0)
(0.640393 20.0005 0)
(0.640393 20.0005 0)
(0.640393 20.0005 0)
(0.640393 20.0005 0)
(0.640393 20.0005 0)
(0.640393 20.0005 0)
(0.640393 20.0005 0)
(0.640393 20.0005 0)
(0.640393 20.0005 0)
(0.640394 20.0005 0)
(0.640394 20.0005 0)
(0.640394 20.0005 0)
(0.640394 20.0005 0)
(0.640394 20.0005 0)
(0.640394 20.0005 0)
(0.640394 20.0005 0)
(0.640394 20.0005 0)
(0.640394 20.0005 0)
(0.640394 20.0005 0)
(0.640394 20.0005 0)
(0.640394 20.0005 0)
(0.640395 20.0005 0)
(0.640396 20.0005 0)
(0.640398 20.0005 0)
(0.6404 20.0005 0)
(0.640403 20.0005 0)
(0.640409 20.0005 0)
(0.640417 20.0005 0)
(0.640429 20.0004 0)
(0.640447 20.0004 0)
(0.640475 20.0003 0)
(0.640521 20.0002 0)
(0.640595 20 0)
(0.640719 19.9997 0)
(0.64094 19.9993 0)
(0.641336 19.9988 0)
(0.642091 19.9979 0)
(0.643473 19.9968 0)
(0.646126 19.9952 0)
(0.650174 19.9934 0)
(0.656354 19.9921 0)
(0.410899 19.3211 0)
(0.426779 19.4085 0)
(0.468609 19.5169 0)
(0.500112 19.6154 0)
(0.52058 19.6947 0)
(0.532582 19.7568 0)
(0.540031 19.8057 0)
(0.545222 19.8445 0)
(0.549111 19.8754 0)
(0.552212 19.9003 0)
(0.554714 19.9202 0)
(0.556758 19.9361 0)
(0.558422 19.949 0)
(0.559774 19.9593 0)
(0.560868 19.9675 0)
(0.56175 19.9742 0)
(0.562458 19.9795 0)
(0.563024 19.9837 0)
(0.563475 19.9872 0)
(0.563834 19.9899 0)
(0.564118 19.9921 0)
(0.564344 19.9938 0)
(0.564522 19.9952 0)
(0.564662 19.9963 0)
(0.564772 19.9972 0)
(0.564859 19.9979 0)
(0.564927 19.9984 0)
(0.564981 19.9989 0)
(0.565023 19.9992 0)
(0.565055 19.9995 0)
(0.565081 19.9997 0)
(0.565101 19.9999 0)
(0.565116 20 0)
(0.565128 20.0002 0)
(0.565138 20.0002 0)
(0.565145 20.0003 0)
(0.56515 20.0004 0)
(0.565155 20.0004 0)
(0.565158 20.0004 0)
(0.565161 20.0004 0)
(0.565163 20.0005 0)
(0.565164 20.0005 0)
(0.565166 20.0005 0)
(0.565167 20.0005 0)
(0.565167 20.0005 0)
(0.565168 20.0005 0)
(0.565168 20.0005 0)
(0.565169 20.0005 0)
(0.565169 20.0005 0)
(0.565169 20.0005 0)
(0.565169 20.0005 0)
(0.565169 20.0005 0)
(0.565169 20.0005 0)
(0.565169 20.0005 0)
(0.565169 20.0005 0)
(0.565169 20.0005 0)
(0.565169 20.0005 0)
(0.565169 20.0005 0)
(0.565169 20.0005 0)
(0.565169 20.0005 0)
(0.565169 20.0005 0)
(0.565169 20.0005 0)
(0.565169 20.0005 0)
(0.565169 20.0005 0)
(0.565169 20.0005 0)
(0.565169 20.0005 0)
(0.565169 20.0005 0)
(0.565169 20.0005 0)
(0.56517 20.0005 0)
(0.56517 20.0005 0)
(0.56517 20.0005 0)
(0.56517 20.0005 0)
(0.56517 20.0005 0)
(0.56517 20.0005 0)
(0.56517 20.0005 0)
(0.56517 20.0005 0)
(0.56517 20.0005 0)
(0.56517 20.0005 0)
(0.56517 20.0005 0)
(0.56517 20.0005 0)
(0.565171 20.0005 0)
(0.565172 20.0005 0)
(0.565173 20.0005 0)
(0.565176 20.0005 0)
(0.565179 20.0005 0)
(0.565184 20.0005 0)
(0.565191 20.0005 0)
(0.565203 20.0004 0)
(0.56522 20.0004 0)
(0.565247 20.0003 0)
(0.56529 20.0001 0)
(0.565361 19.9999 0)
(0.56548 19.9997 0)
(0.565693 19.9992 0)
(0.566077 19.9986 0)
(0.56681 19.9976 0)
(0.568149 19.9962 0)
(0.570711 19.9941 0)
(0.574597 19.9916 0)
(0.580445 19.9896 0)
(0.354543 19.2972 0)
(0.367439 19.3799 0)
(0.40315 19.4904 0)
(0.430845 19.5944 0)
(0.449242 19.6786 0)
(0.460122 19.7444 0)
(0.466923 19.7959 0)
(0.471658 19.8366 0)
(0.475208 19.8691 0)
(0.478033 19.8951 0)
(0.480315 19.916 0)
(0.482178 19.9328 0)
(0.483696 19.9463 0)
(0.48493 19.9571 0)
(0.485929 19.9658 0)
(0.486734 19.9728 0)
(0.487381 19.9784 0)
(0.487899 19.9828 0)
(0.488312 19.9864 0)
(0.48864 19.9893 0)
(0.488901 19.9916 0)
(0.489107 19.9934 0)
(0.48927 19.9949 0)
(0.489399 19.9961 0)
(0.489501 19.997 0)
(0.48958 19.9977 0)
(0.489643 19.9983 0)
(0.489692 19.9988 0)
(0.489731 19.9992 0)
(0.489761 19.9995 0)
(0.489785 19.9997 0)
(0.489803 19.9999 0)
(0.489817 20 0)
(0.489829 20.0001 0)
(0.489837 20.0002 0)
(0.489844 20.0003 0)
(0.489849 20.0003 0)
(0.489853 20.0004 0)
(0.489856 20.0004 0)
(0.489859 20.0004 0)
(0.489861 20.0005 0)
(0.489862 20.0005 0)
(0.489863 20.0005 0)
(0.489864 20.0005 0)
(0.489865 20.0005 0)
(0.489865 20.0005 0)
(0.489866 20.0005 0)
(0.489866 20.0005 0)
(0.489867 20.0005 0)
(0.489867 20.0005 0)
(0.489867 20.0005 0)
(0.489867 20.0005 0)
(0.489867 20.0005 0)
(0.489867 20.0005 0)
(0.489867 20.0005 0)
(0.489867 20.0005 0)
(0.489867 20.0005 0)
(0.489867 20.0005 0)
(0.489867 20.0005 0)
(0.489867 20.0005 0)
(0.489867 20.0005 0)
(0.489867 20.0005 0)
(0.489867 20.0005 0)
(0.489867 20.0005 0)
(0.489867 20.0005 0)
(0.489867 20.0005 0)
(0.489867 20.0005 0)
(0.489867 20.0005 0)
(0.489867 20.0005 0)
(0.489867 20.0005 0)
(0.489867 20.0005 0)
(0.489867 20.0005 0)
(0.489867 20.0005 0)
(0.489867 20.0005 0)
(0.489867 20.0005 0)
(0.489867 20.0005 0)
(0.489867 20.0005 0)
(0.489867 20.0005 0)
(0.489867 20.0005 0)
(0.489868 20.0005 0)
(0.489868 20.0005 0)
(0.489869 20.0005 0)
(0.48987 20.0005 0)
(0.489873 20.0005 0)
(0.489876 20.0005 0)
(0.48988 20.0005 0)
(0.489887 20.0004 0)
(0.489898 20.0004 0)
(0.489913 20.0003 0)
(0.489938 20.0003 0)
(0.489978 20.0001 0)
(0.490044 19.9999 0)
(0.490155 19.9996 0)
(0.490354 19.9991 0)
(0.490714 19.9984 0)
(0.491402 19.9973 0)
(0.492658 19.9956 0)
(0.495051 19.9931 0)
(0.49866 19.9899 0)
(0.504018 19.9873 0)
(0.298929 19.2773 0)
(0.309252 19.3557 0)
(0.339017 19.4676 0)
(0.36269 19.5763 0)
(0.37871 19.6647 0)
(0.38826 19.7336 0)
(0.394266 19.7873 0)
(0.398446 19.8297 0)
(0.40158 19.8635 0)
(0.404072 19.8906 0)
(0.406085 19.9124 0)
(0.407729 19.9299 0)
(0.409068 19.9439 0)
(0.410158 19.9552 0)
(0.411041 19.9643 0)
(0.411753 19.9716 0)
(0.412324 19.9774 0)
(0.412782 19.9821 0)
(0.413148 19.9858 0)
(0.413438 19.9888 0)
(0.413669 19.9912 0)
(0.413852 19.9931 0)
(0.413997 19.9946 0)
(0.414111 19.9959 0)
(0.414201 19.9968 0)
(0.414272 19.9976 0)
(0.414327 19.9982 0)
(0.414371 19.9987 0)
(0.414405 19.9991 0)
(0.414432 19.9994 0)
(0.414453 19.9996 0)
(0.41447 19.9998 0)
(0.414483 20 0)
(0.414493 20.0001 0)
(0.4145 20.0002 0)
(0.414506 20.0003 0)
(0.414511 20.0003 0)
(0.414515 20.0004 0)
(0.414517 20.0004 0)
(0.41452 20.0004 0)
(0.414521 20.0005 0)