/*--------------------------------*- C++ -*----------------------------------*\
| =========                 |                                                 |
| \\      /  F ield         | OpenFOAM: The Open Source CFD Toolbox           |
|  \\    /   O peration     | Version:  v1906                                 |
|   \\  /    A nd           | Web:      www.OpenFOAM.com                      |
|    \\/     M anipulation  |                                                 |
\*---------------------------------------------------------------------------*/
FoamFile
{
    version     2.0;
    format      ascii;
    class       volVectorField;
    location    "2";
    object      B;
}
// * * * * * * * * * * * * * * * * * * * * * * * * * * * * * * * * * * * * * //

dimensions      [1 0 -2 0 0 -1 0];


internalField   nonuniform List<vector> 
4000
(
(0.473704 20.0302 0)
(0.499761 19.9949 0)
(0.486456 19.989 0)
(0.492092 19.9895 0)
(0.491797 19.9911 0)
(0.493054 19.993 0)
(0.493099 19.9944 0)
(0.493354 19.9956 0)
(0.493399 19.9965 0)
(0.49348 19.9972 0)
(0.493517 19.9978 0)
(0.493554 19.9982 0)
(0.493576 19.9986 0)
(0.493592 19.9989 0)
(0.493601 19.9991 0)
(0.493605 19.9993 0)
(0.493605 19.9994 0)
(0.493602 19.9995 0)
(0.493597 19.9996 0)
(0.49359 19.9997 0)
(0.493583 19.9998 0)
(0.493575 19.9998 0)
(0.493568 19.9999 0)
(0.49356 19.9999 0)
(0.493553 19.9999 0)
(0.493547 19.9999 0)
(0.493541 19.9999 0)
(0.493536 20 0)
(0.493531 20 0)
(0.493527 20 0)
(0.493524 20 0)
(0.493521 20 0)
(0.493518 20 0)
(0.493516 20 0)
(0.493514 20 0)
(0.493513 20 0)
(0.493512 20 0)
(0.493511 20 0)
(0.49351 20 0)
(0.493509 20 0)
(0.493509 20 0)
(0.493508 20 0)
(0.493508 20 0)
(0.493508 20 0)
(0.493507 20 0)
(0.493507 20 0)
(0.493507 20 0)
(0.493507 20 0)
(0.493507 20 0)
(0.493507 20 0)
(0.493507 20 0)
(0.493507 20 0)
(0.493507 20 0)
(0.493507 20 0)
(0.493507 20 0)
(0.493507 20 0)
(0.493507 20 0)
(0.493507 20 0)
(0.493507 20 0)
(0.493507 20 0)
(0.493506 20 0)
(0.493506 20 0)
(0.493506 20 0)
(0.493506 20 0)
(0.493506 20 0)
(0.493506 20 0)
(0.493506 20 0)
(0.493506 20 0)
(0.493506 20 0)
(0.493506 20 0)
(0.493506 20 0)
(0.493506 20 0)
(0.493506 20 0)
(0.493506 20 0)
(0.493506 20 0)
(0.493506 20 0)
(0.493506 20 0)
(0.493506 20 0)
(0.493506 20 0)
(0.493506 20 0)
(0.493506 20 0)
(0.493506 20 0)
(0.493506 20 0)
(0.493506 20 0)
(0.493506 20 0)
(0.493506 20 0)
(0.493506 20 0)
(0.493506 20 0)
(0.493506 20 0)
(0.493506 20 0)
(0.493507 20 0)
(0.493508 20 0)
(0.493511 20 0)
(0.493517 20 0)
(0.493529 20 0)
(0.493549 19.9999 0)
(0.493591 20 0)
(0.493596 20.0001 0)
(0.493552 20.0004 0)
(0.49279 20.0007 0)
(0.720741 20.0002 0)
(0.77021 19.9731 0)
(0.768824 19.9669 0)
(0.77961 19.9696 0)
(0.780827 19.9746 0)
(0.78349 19.98 0)
(0.784304 19.9844 0)
(0.785246 19.9879 0)
(0.785788 19.9906 0)
(0.786284 19.9927 0)
(0.786646 19.9944 0)
(0.786947 19.9958 0)
(0.78718 19.9969 0)
(0.787364 19.9978 0)
(0.787507 19.9985 0)
(0.787617 19.999 0)
(0.787701 19.9995 0)
(0.787763 19.9998 0)
(0.787809 20.0001 0)
(0.787842 20.0003 0)
(0.787865 20.0005 0)
(0.787881 20.0007 0)
(0.787891 20.0008 0)
(0.787896 20.0009 0)
(0.787899 20.0009 0)
(0.7879 20.001 0)
(0.7879 20.001 0)
(0.787899 20.0011 0)
(0.787897 20.0011 0)
(0.787895 20.0011 0)
(0.787893 20.0011 0)
(0.787891 20.0011 0)
(0.78789 20.0012 0)
(0.787888 20.0012 0)
(0.787887 20.0012 0)
(0.787885 20.0012 0)
(0.787884 20.0012 0)
(0.787883 20.0012 0)
(0.787882 20.0012 0)
(0.787882 20.0012 0)
(0.787881 20.0012 0)
(0.787881 20.0012 0)
(0.78788 20.0012 0)
(0.78788 20.0012 0)
(0.78788 20.0012 0)
(0.78788 20.0012 0)
(0.787879 20.0012 0)
(0.787879 20.0012 0)
(0.787879 20.0012 0)
(0.787879 20.0012 0)
(0.787879 20.0012 0)
(0.787879 20.0012 0)
(0.787879 20.0012 0)
(0.787879 20.0012 0)
(0.787879 20.0012 0)
(0.787879 20.0012 0)
(0.787879 20.0012 0)
(0.787879 20.0012 0)
(0.787879 20.0012 0)
(0.787879 20.0012 0)
(0.787879 20.0012 0)
(0.787879 20.0012 0)
(0.787879 20.0012 0)
(0.787879 20.0012 0)
(0.787879 20.0012 0)
(0.787879 20.0012 0)
(0.787879 20.0012 0)
(0.787879 20.0012 0)
(0.787879 20.0012 0)
(0.787879 20.0012 0)
(0.787879 20.0012 0)
(0.787879 20.0012 0)
(0.787879 20.0012 0)
(0.787879 20.0012 0)
(0.787879 20.0012 0)
(0.787879 20.0012 0)
(0.787879 20.0012 0)
(0.787879 20.0012 0)
(0.787879 20.0012 0)
(0.787879 20.0012 0)
(0.787879 20.0012 0)
(0.787879 20.0012 0)
(0.787879 20.0012 0)
(0.787879 20.0012 0)
(0.78788 20.0012 0)
(0.78788 20.0012 0)
(0.787881 20.0012 0)
(0.787883 20.0012 0)
(0.787885 20.0012 0)
(0.787889 20.0012 0)
(0.787895 20.0012 0)
(0.787905 20.0011 0)
(0.787922 20.0011 0)
(0.787948 20.0011 0)
(0.787994 20.001 0)
(0.788068 20.001 0)
(0.788197 20.0011 0)
(0.788339 20.0014 0)
(0.788459 20.0022 0)
(0.787402 20.0032 0)
(0.755236 19.9314 0)
(0.807928 19.9398 0)
(0.821184 19.9417 0)
(0.835614 19.9481 0)
(0.838846 19.957 0)
(0.842588 19.9659 0)
(0.844259 19.9731 0)
(0.845874 19.9789 0)
(0.846969 19.9834 0)
(0.847913 19.987 0)
(0.84864 19.9898 0)
(0.849236 19.9921 0)
(0.849707 19.9939 0)
(0.850084 19.9954 0)
(0.850383 19.9965 0)
(0.850618 19.9975 0)
(0.850802 19.9982 0)
(0.850945 19.9988 0)
(0.851055 19.9993 0)
(0.851139 19.9997 0)
(0.851202 20 0)
(0.85125 20.0002 0)
(0.851286 20.0004 0)
(0.851312 20.0006 0)
(0.851332 20.0007 0)
(0.851345 20.0008 0)
(0.851355 20.0009 0)
(0.851362 20.0009 0)
(0.851367 20.001 0)
(0.85137 20.001 0)
(0.851372 20.001 0)
(0.851373 20.0011 0)
(0.851373 20.0011 0)
(0.851373 20.0011 0)
(0.851373 20.0011 0)
(0.851373 20.0011 0)
(0.851373 20.0011 0)
(0.851373 20.0011 0)
(0.851373 20.0011 0)
(0.851372 20.0011 0)
(0.851372 20.0011 0)
(0.851372 20.0011 0)
(0.851372 20.0011 0)
(0.851372 20.0011 0)
(0.851371 20.0011 0)
(0.851371 20.0011 0)
(0.851371 20.0011 0)
(0.851371 20.0011 0)
(0.851371 20.0011 0)
(0.851371 20.0011 0)
(0.851371 20.0011 0)
(0.851371 20.0011 0)
(0.851371 20.0011 0)
(0.851371 20.0011 0)
(0.851371 20.0011 0)
(0.851371 20.0011 0)
(0.851371 20.0011 0)
(0.851371 20.0011 0)
(0.851371 20.0011 0)
(0.851371 20.0011 0)
(0.851371 20.0011 0)
(0.851371 20.0011 0)
(0.851371 20.0011 0)
(0.851371 20.0011 0)
(0.851371 20.0011 0)
(0.851371 20.0011 0)
(0.851371 20.0011 0)
(0.851371 20.0011 0)
(0.851371 20.0011 0)
(0.851371 20.0011 0)
(0.851371 20.0011 0)
(0.851371 20.0011 0)
(0.851371 20.0011 0)
(0.851371 20.0011 0)
(0.851371 20.0011 0)
(0.851371 20.0011 0)
(0.851371 20.0011 0)
(0.851371 20.0011 0)
(0.851371 20.0011 0)
(0.851371 20.0011 0)
(0.851371 20.0011 0)
(0.851372 20.0011 0)
(0.851372 20.0011 0)
(0.851373 20.0011 0)
(0.851373 20.0011 0)
(0.851375 20.0011 0)
(0.851377 20.0011 0)
(0.85138 20.0011 0)
(0.851386 20.0011 0)
(0.851394 20.0011 0)
(0.851406 20.0011 0)
(0.851426 20.001 0)
(0.851458 20.001 0)
(0.851508 20.0009 0)
(0.851591 20.0009 0)
(0.851727 20.0008 0)
(0.85196 20.0009 0)
(0.852314 20.0014 0)
(0.852788 20.0026 0)
(0.852465 20.0042 0)
(0.726944 19.864 0)
(0.774697 19.9012 0)
(0.798017 19.9146 0)
(0.81518 19.9263 0)
(0.820401 19.9394 0)
(0.825073 19.9516 0)
(0.827531 19.9617 0)
(0.829744 19.9697 0)
(0.831344 19.976 0)
(0.832696 19.981 0)
(0.833758 19.985 0)
(0.834626 19.9882 0)
(0.835319 19.9907 0)
(0.835876 19.9927 0)
(0.836319 19.9944 0)
(0.836672 19.9957 0)
(0.83695 19.9967 0)
(0.837169 19.9976 0)
(0.83734 19.9982 0)
(0.837474 19.9988 0)
(0.837577 19.9992 0)
(0.837657 19.9995 0)
(0.837718 19.9998 0)
(0.837765 20 0)
(0.8378 20.0002 0)
(0.837827 20.0003 0)
(0.837847 20.0004 0)
(0.837862 20.0005 0)
(0.837873 20.0006 0)
(0.837882 20.0006 0)
(0.837888 20.0007 0)
(0.837892 20.0007 0)
(0.837895 20.0007 0)
(0.837898 20.0007 0)
(0.837899 20.0008 0)
(0.837901 20.0008 0)
(0.837901 20.0008 0)
(0.837902 20.0008 0)
(0.837902 20.0008 0)
(0.837903 20.0008 0)
(0.837903 20.0008 0)
(0.837903 20.0008 0)
(0.837903 20.0008 0)
(0.837903 20.0008 0)
(0.837903 20.0008 0)
(0.837903 20.0008 0)
(0.837903 20.0008 0)
(0.837903 20.0008 0)
(0.837903 20.0008 0)
(0.837903 20.0008 0)
(0.837903 20.0008 0)
(0.837903 20.0008 0)
(0.837903 20.0008 0)
(0.837903 20.0008 0)
(0.837903 20.0008 0)
(0.837903 20.0008 0)
(0.837903 20.0008 0)
(0.837903 20.0008 0)
(0.837903 20.0008 0)
(0.837903 20.0008 0)
(0.837903 20.0008 0)
(0.837903 20.0008 0)
(0.837903 20.0008 0)
(0.837903 20.0008 0)
(0.837903 20.0008 0)
(0.837903 20.0008 0)
(0.837903 20.0008 0)
(0.837903 20.0008 0)
(0.837903 20.0008 0)
(0.837903 20.0008 0)
(0.837903 20.0008 0)
(0.837903 20.0008 0)
(0.837903 20.0008 0)
(0.837903 20.0008 0)
(0.837903 20.0008 0)
(0.837903 20.0008 0)
(0.837903 20.0008 0)
(0.837903 20.0008 0)
(0.837903 20.0008 0)
(0.837903 20.0008 0)
(0.837904 20.0008 0)
(0.837904 20.0008 0)
(0.837905 20.0008 0)
(0.837906 20.0008 0)
(0.837907 20.0008 0)
(0.837909 20.0008 0)
(0.837913 20.0008 0)
(0.837918 20.0008 0)
(0.837926 20.0008 0)
(0.837938 20.0007 0)
(0.837957 20.0007 0)
(0.837986 20.0007 0)
(0.838032 20.0006 0)
(0.838107 20.0005 0)
(0.838227 20.0005 0)
(0.83843 20.0004 0)
(0.838782 20.0005 0)
(0.839386 20.0009 0)
(0.840315 20.0024 0)
(0.841164 20.0043 0)
(0.681508 19.8066 0)
(0.722081 19.8616 0)
(0.75104 19.8866 0)
(0.770079 19.9046 0)
(0.777038 19.9222 0)
(0.782501 19.9378 0)
(0.785637 19.9506 0)
(0.78835 19.9608 0)
(0.790377 19.9688 0)
(0.792074 19.9752 0)
(0.793421 19.9803 0)
(0.794521 19.9844 0)
(0.795403 19.9877 0)
(0.796113 19.9903 0)
(0.796681 19.9924 0)
(0.797134 19.9941 0)
(0.797494 19.9954 0)
(0.797778 19.9965 0)
(0.798002 19.9974 0)
(0.798178 19.9981 0)
(0.798316 19.9986 0)
(0.798423 19.999 0)
(0.798507 19.9994 0)
(0.798571 19.9997 0)
(0.798621 19.9999 0)
(0.79866 20.0001 0)
(0.798689 20.0002 0)
(0.798712 20.0003 0)
(0.798729 20.0004 0)
(0.798742 20.0004 0)
(0.798752 20.0005 0)
(0.798759 20.0005 0)
(0.798765 20.0006 0)
(0.798769 20.0006 0)
(0.798772 20.0006 0)
(0.798775 20.0006 0)
(0.798776 20.0006 0)
(0.798778 20.0007 0)
(0.798779 20.0007 0)
(0.798779 20.0007 0)
(0.79878 20.0007 0)
(0.79878 20.0007 0)
(0.798781 20.0007 0)
(0.798781 20.0007 0)
(0.798781 20.0007 0)
(0.798781 20.0007 0)
(0.798781 20.0007 0)
(0.798781 20.0007 0)
(0.798781 20.0007 0)
(0.798781 20.0007 0)
(0.798781 20.0007 0)
(0.798781 20.0007 0)
(0.798781 20.0007 0)
(0.798781 20.0007 0)
(0.798781 20.0007 0)
(0.798782 20.0007 0)
(0.798782 20.0007 0)
(0.798782 20.0007 0)
(0.798781 20.0007 0)
(0.798781 20.0007 0)
(0.798781 20.0007 0)
(0.798781 20.0007 0)
(0.798781 20.0007 0)
(0.798781 20.0007 0)
(0.798781 20.0007 0)
(0.798781 20.0007 0)
(0.798781 20.0007 0)
(0.798781 20.0007 0)
(0.798781 20.0007 0)
(0.798782 20.0007 0)
(0.798782 20.0007 0)
(0.798782 20.0007 0)
(0.798782 20.0007 0)
(0.798782 20.0007 0)
(0.798782 20.0007 0)
(0.798782 20.0007 0)
(0.798782 20.0007 0)
(0.798782 20.0007 0)
(0.798782 20.0007 0)
(0.798782 20.0007 0)
(0.798783 20.0007 0)
(0.798783 20.0007 0)
(0.798784 20.0007 0)
(0.798785 20.0007 0)
(0.798787 20.0007 0)
(0.79879 20.0007 0)
(0.798795 20.0007 0)
(0.798801 20.0006 0)
(0.798812 20.0006 0)
(0.798827 20.0006 0)
(0.798852 20.0006 0)
(0.79889 20.0005 0)
(0.798949 20.0004 0)
(0.799046 20.0003 0)
(0.799204 20.0002 0)
(0.799475 20.0001 0)
(0.79995 20.0001 0)
(0.800816 20.0006 0)
(0.802218 20.002 0)
(0.804221 20.0039 0)
(0.632614 19.7581 0)
(0.666114 19.8228 0)
(0.697503 19.8586 0)
(0.717608 19.8833 0)
(0.725951 19.9055 0)
(0.73205 19.9244 0)
(0.735737 19.9398 0)
(0.738849 19.9521 0)
(0.741218 19.9619 0)
(0.743189 19.9697 0)
(0.744765 19.9759 0)
(0.746051 19.9809 0)
(0.747085 19.9848 0)
(0.747919 19.988 0)
(0.748588 19.9906 0)
(0.749122 19.9926 0)
(0.749547 19.9943 0)
(0.749885 19.9956 0)
(0.750152 19.9966 0)
(0.750363 19.9975 0)
(0.750528 19.9981 0)
(0.750658 19.9987 0)
(0.75076 19.9991 0)
(0.750839 19.9994 0)
(0.750901 19.9997 0)
(0.750948 19.9999 0)
(0.750986 20.0001 0)
(0.751014 20.0002 0)
(0.751036 20.0003 0)
(0.751054 20.0004 0)
(0.751067 20.0004 0)
(0.751077 20.0005 0)
(0.751084 20.0005 0)
(0.75109 20.0006 0)
(0.751095 20.0006 0)
(0.751098 20.0006 0)
(0.751101 20.0006 0)
(0.751103 20.0006 0)
(0.751104 20.0006 0)
(0.751105 20.0006 0)
(0.751106 20.0006 0)
(0.751107 20.0006 0)
(0.751107 20.0007 0)
(0.751108 20.0007 0)
(0.751108 20.0007 0)
(0.751108 20.0007 0)
(0.751109 20.0007 0)
(0.751109 20.0007 0)
(0.751109 20.0007 0)
(0.751109 20.0007 0)
(0.751109 20.0007 0)
(0.751109 20.0007 0)
(0.751109 20.0007 0)
(0.751109 20.0007 0)
(0.751109 20.0007 0)
(0.751109 20.0007 0)
(0.751109 20.0007 0)
(0.751109 20.0007 0)
(0.751109 20.0007 0)
(0.751109 20.0007 0)
(0.751109 20.0007 0)
(0.751109 20.0007 0)
(0.751109 20.0007 0)
(0.751109 20.0007 0)
(0.751109 20.0007 0)
(0.751109 20.0007 0)
(0.751109 20.0007 0)
(0.751109 20.0007 0)
(0.751109 20.0007 0)
(0.751109 20.0007 0)
(0.751109 20.0007 0)
(0.751109 20.0007 0)
(0.751109 20.0007 0)
(0.751109 20.0007 0)
(0.751109 20.0007 0)
(0.751109 20.0007 0)
(0.751109 20.0007 0)
(0.751109 20.0007 0)
(0.75111 20.0007 0)
(0.75111 20.0007 0)
(0.75111 20.0007 0)
(0.751111 20.0007 0)
(0.751112 20.0007 0)
(0.751114 20.0007 0)
(0.751116 20.0006 0)
(0.75112 20.0006 0)
(0.751125 20.0006 0)
(0.751133 20.0006 0)
(0.751145 20.0006 0)
(0.751164 20.0006 0)
(0.751193 20.0005 0)
(0.751238 20.0005 0)
(0.75131 20.0004 0)
(0.751427 20.0002 0)
(0.75162 20.0001 0)
(0.751958 19.9999 0)
(0.752553 19.9999 0)
(0.753671 20.0002 0)
(0.755509 20.0015 0)
(0.75846 20.0031 0)
(0.584116 19.7165 0)
(0.611419 19.786 0)
(0.643082 19.8311 0)
(0.663532 19.8626 0)
(0.672872 19.8893 0)
(0.679435 19.9115 0)
(0.683542 19.9294 0)
(0.686949 19.9438 0)
(0.689572 19.9552 0)
(0.691748 19.9643 0)
(0.693495 19.9716 0)
(0.694921 19.9774 0)
(0.69607 19.9821 0)
(0.696998 19.9858 0)
(0.697742 19.9888 0)
(0.698338 19.9912 0)
(0.698813 19.9931 0)
(0.699191 19.9947 0)
(0.699491 19.9959 0)
(0.699728 19.9969 0)
(0.699916 19.9977 0)
(0.700063 19.9983 0)
(0.700178 19.9988 0)
(0.700269 19.9992 0)
(0.70034 19.9995 0)
(0.700395 19.9997 0)
(0.700438 19.9999 0)
(0.700472 20.0001 0)
(0.700498 20.0002 0)
(0.700518 20.0003 0)
(0.700534 20.0004 0)
(0.700546 20.0004 0)
(0.700555 20.0005 0)
(0.700562 20.0005 0)
(0.700568 20.0006 0)
(0.700572 20.0006 0)
(0.700575 20.0006 0)
(0.700578 20.0006 0)
(0.70058 20.0006 0)
(0.700581 20.0006 0)
(0.700582 20.0006 0)
(0.700583 20.0006 0)
(0.700584 20.0006 0)
(0.700584 20.0007 0)
(0.700585 20.0007 0)
(0.700585 20.0007 0)
(0.700585 20.0007 0)
(0.700586 20.0007 0)
(0.700586 20.0007 0)
(0.700586 20.0007 0)
(0.700586 20.0007 0)
(0.700586 20.0007 0)
(0.700586 20.0007 0)
(0.700586 20.0007 0)
(0.700586 20.0007 0)
(0.700586 20.0007 0)
(0.700586 20.0007 0)
(0.700586 20.0007 0)
(0.700586 20.0007 0)
(0.700586 20.0007 0)
(0.700586 20.0007 0)
(0.700586 20.0007 0)
(0.700586 20.0007 0)
(0.700586 20.0007 0)
(0.700586 20.0007 0)
(0.700586 20.0007 0)
(0.700586 20.0007 0)
(0.700586 20.0007 0)
(0.700586 20.0007 0)
(0.700586 20.0007 0)
(0.700586 20.0007 0)
(0.700586 20.0007 0)
(0.700586 20.0007 0)
(0.700586 20.0007 0)
(0.700586 20.0007 0)
(0.700586 20.0007 0)
(0.700586 20.0007 0)
(0.700587 20.0007 0)
(0.700587 20.0007 0)
(0.700587 20.0007 0)
(0.700588 20.0007 0)
(0.700588 20.0007 0)
(0.70059 20.0007 0)
(0.700591 20.0006 0)
(0.700594 20.0006 0)
(0.700598 20.0006 0)
(0.700604 20.0006 0)
(0.700613 20.0006 0)
(0.700627 20.0006 0)
(0.700648 20.0005 0)
(0.700681 20.0005 0)
(0.700732 20.0004 0)
(0.700814 20.0003 0)
(0.700948 20.0001 0)
(0.701173 19.9999 0)
(0.701572 19.9997 0)
(0.702278 19.9996 0)
(0.703623 19.9997 0)
(0.705828 20.0007 0)
(0.709481 20.002 0)
(0.536863 19.6807 0)
(0.558988 19.7518 0)
(0.589549 19.8046 0)
(0.609745 19.8425 0)
(0.619698 19.8737 0)
(0.626543 19.899 0)
(0.630937 19.9195 0)
(0.634539 19.9358 0)
(0.637333 19.9488 0)
(0.639645 19.9591 0)
(0.641507 19.9674 0)
(0.643028 19.9741 0)
(0.644255 19.9794 0)
(0.645247 19.9837 0)
(0.646043 19.9871 0)
(0.646682 19.9898 0)
(0.647191 19.992 0)
(0.647598 19.9938 0)
(0.64792 19.9952 0)
(0.648176 19.9963 0)
(0.648378 19.9972 0)
(0.648537 19.9979 0)
(0.648663 19.9985 0)
(0.648761 19.9989 0)
(0.648839 19.9993 0)
(0.648899 19.9996 0)
(0.648947 19.9998 0)
(0.648984 20 0)
(0.649013 20.0001 0)
(0.649035 20.0003 0)
(0.649053 20.0003 0)
(0.649066 20.0004 0)
(0.649077 20.0005 0)
(0.649085 20.0005 0)
(0.649092 20.0005 0)
(0.649096 20.0006 0)
(0.6491 20.0006 0)
(0.649103 20.0006 0)
(0.649105 20.0006 0)
(0.649107 20.0006 0)
(0.649109 20.0006 0)
(0.64911 20.0006 0)
(0.64911 20.0006 0)
(0.649111 20.0006 0)
(0.649112 20.0006 0)
(0.649112 20.0007 0)
(0.649112 20.0007 0)
(0.649112 20.0007 0)
(0.649113 20.0007 0)
(0.649113 20.0007 0)
(0.649113 20.0007 0)
(0.649113 20.0007 0)
(0.649113 20.0007 0)
(0.649113 20.0007 0)
(0.649113 20.0007 0)
(0.649113 20.0007 0)
(0.649113 20.0007 0)
(0.649113 20.0007 0)
(0.649113 20.0007 0)
(0.649113 20.0007 0)
(0.649113 20.0007 0)
(0.649113 20.0007 0)
(0.649113 20.0007 0)
(0.649113 20.0007 0)
(0.649113 20.0007 0)
(0.649113 20.0007 0)
(0.649113 20.0007 0)
(0.649113 20.0007 0)
(0.649113 20.0007 0)
(0.649113 20.0007 0)
(0.649113 20.0007 0)
(0.649113 20.0007 0)
(0.649113 20.0007 0)
(0.649113 20.0007 0)
(0.649113 20.0007 0)
(0.649113 20.0007 0)
(0.649114 20.0007 0)
(0.649114 20.0007 0)
(0.649114 20.0007 0)
(0.649114 20.0007 0)
(0.649115 20.0007 0)
(0.649116 20.0007 0)
(0.649117 20.0006 0)
(0.649119 20.0006 0)
(0.649122 20.0006 0)
(0.649126 20.0006 0)
(0.649133 20.0006 0)
(0.649143 20.0006 0)
(0.649158 20.0006 0)
(0.649181 20.0005 0)
(0.649216 20.0005 0)
(0.649272 20.0004 0)
(0.649362 20.0002 0)
(0.649511 20 0)
(0.649762 19.9998 0)
(0.650213 19.9995 0)
(0.651014 19.9992 0)
(0.652547 19.9991 0)
(0.655037 19.9997 0)
(0.65916 20.0005 0)
(0.490843 19.6497 0)
(0.508729 19.7204 0)
(0.537359 19.7794 0)
(0.556823 19.8234 0)
(0.567034 19.8589 0)
(0.573984 19.8872 0)
(0.578536 19.9099 0)
(0.582235 19.9281 0)
(0.585119 19.9426 0)
(0.587503 19.9542 0)
(0.589426 19.9635 0)
(0.590998 19.9709 0)
(0.592268 19.9769 0)
(0.593295 19.9816 0)
(0.594121 19.9855 0)
(0.594783 19.9885 0)
(0.595313 19.991 0)
(0.595735 19.993 0)
(0.596071 19.9945 0)
(0.596337 19.9958 0)
(0.596548 19.9968 0)
(0.596715 19.9976 0)
(0.596846 19.9982 0)
(0.59695 19.9987 0)
(0.597031 19.9991 0)
(0.597095 19.9995 0)
(0.597145 19.9997 0)
(0.597184 19.9999 0)
(0.597215 20.0001 0)
(0.597239 20.0002 0)
(0.597258 20.0003 0)
(0.597272 20.0004 0)
(0.597284 20.0004 0)
(0.597293 20.0005 0)
(0.5973 20.0005 0)
(0.597305 20.0006 0)
(0.597309 20.0006 0)
(0.597312 20.0006 0)
(0.597315 20.0006 0)
(0.597317 20.0006 0)
(0.597318 20.0006 0)
(0.597319 20.0006 0)
(0.59732 20.0006 0)
(0.597321 20.0006 0)
(0.597322 20.0006 0)
(0.597322 20.0006 0)
(0.597322 20.0006 0)
(0.597323 20.0007 0)
(0.597323 20.0007 0)
(0.597323 20.0007 0)
(0.597323 20.0007 0)
(0.597323 20.0007 0)
(0.597323 20.0007 0)
(0.597323 20.0007 0)
(0.597323 20.0007 0)
(0.597323 20.0007 0)
(0.597323 20.0007 0)
(0.597323 20.0007 0)
(0.597323 20.0007 0)
(0.597323 20.0007 0)
(0.597323 20.0007 0)
(0.597323 20.0007 0)
(0.597323 20.0007 0)
(0.597323 20.0007 0)
(0.597323 20.0007 0)
(0.597323 20.0007 0)
(0.597323 20.0007 0)
(0.597323 20.0007 0)
(0.597323 20.0007 0)
(0.597323 20.0007 0)
(0.597323 20.0007 0)
(0.597323 20.0007 0)
(0.597324 20.0007 0)
(0.597324 20.0007 0)
(0.597324 20.0007 0)
(0.597324 20.0007 0)
(0.597324 20.0007 0)
(0.597324 20.0007 0)
(0.597324 20.0007 0)
(0.597325 20.0007 0)
(0.597325 20.0007 0)
(0.597326 20.0006 0)
(0.597328 20.0006 0)
(0.59733 20.0006 0)
(0.597333 20.0006 0)
(0.597337 20.0006 0)
(0.597344 20.0006 0)
(0.597354 20.0006 0)
(0.59737 20.0006 0)
(0.597394 20.0005 0)
(0.597432 20.0004 0)
(0.597491 20.0003 0)
(0.597586 20.0002 0)
(0.597746 19.9999 0)
(0.598018 19.9996 0)
(0.59851 19.9993 0)
(0.599385 19.9988 0)
(0.60106 19.9985 0)
(0.603744 19.9985 0)
(0.608135 19.9988 0)
(0.445851 19.6229 0)
(0.460292 19.6919 0)
(0.486527 19.7559 0)
(0.504896 19.8054 0)
(0.51505 19.8449 0)
(0.521936 19.876 0)
(0.526522 19.901 0)
(0.530225 19.9209 0)
(0.533124 19.9368 0)
(0.535517 19.9495 0)
(0.537453 19.9597 0)
(0.539034 19.9679 0)
(0.540314 19.9744 0)
(0.541349 19.9797 0)
(0.542182 19.9839 0)
(0.542851 19.9873 0)
(0.543386 19.99 0)
(0.543813 19.9922 0)
(0.544152 19.9939 0)
(0.544422 19.9953 0)
(0.544636 19.9964 0)
(0.544805 19.9973 0)
(0.544938 19.998 0)
(0.545044 19.9985 0)
(0.545127 19.999 0)
(0.545192 19.9993 0)
(0.545244 19.9996 0)
(0.545284 19.9998 0)
(0.545315 20 0)
(0.54534 20.0001 0)
(0.545359 20.0002 0)
(0.545375 20.0003 0)
(0.545386 20.0004 0)
(0.545396 20.0005 0)
(0.545403 20.0005 0)
(0.545409 20.0005 0)
(0.545413 20.0006 0)
(0.545416 20.0006 0)
(0.545419 20.0006 0)
(0.545421 20.0006 0)
(0.545423 20.0006 0)
(0.545424 20.0006 0)
(0.545425 20.0006 0)
(0.545426 20.0006 0)
(0.545426 20.0006 0)
(0.545427 20.0006 0)
(0.545427 20.0006 0)
(0.545427 20.0006 0)
(0.545427 20.0007 0)
(0.545428 20.0007 0)
(0.545428 20.0007 0)
(0.545428 20.0007 0)
(0.545428 20.0007 0)
(0.545428 20.0007 0)
(0.545428 20.0007 0)
(0.545428 20.0007 0)
(0.545428 20.0007 0)
(0.545428 20.0007 0)
(0.545428 20.0007 0)
(0.545428 20.0007 0)
(0.545428 20.0007 0)
(0.545428 20.0007 0)
(0.545428 20.0007 0)
(0.545428 20.0007 0)
(0.545428 20.0007 0)
(0.545428 20.0007 0)
(0.545428 20.0007 0)
(0.545428 20.0007 0)
(0.545428 20.0007 0)
(0.545428 20.0007 0)
(0.545428 20.0007 0)
(0.545428 20.0007 0)
(0.545428 20.0007 0)
(0.545428 20.0007 0)
(0.545428 20.0007 0)
(0.545428 20.0007 0)
(0.545429 20.0007 0)
(0.545429 20.0007 0)
(0.545429 20.0007 0)
(0.545429 20.0007 0)
(0.54543 20.0006 0)
(0.545431 20.0006 0)
(0.545432 20.0006 0)
(0.545434 20.0006 0)
(0.545438 20.0006 0)
(0.545442 20.0006 0)
(0.545449 20.0006 0)
(0.54546 20.0006 0)
(0.545476 20.0005 0)
(0.5455 20.0005 0)
(0.545539 20.0004 0)
(0.545599 20.0003 0)
(0.545698 20.0001 0)
(0.545865 19.9998 0)
(0.546151 19.9995 0)
(0.546671 19.999 0)
(0.547595 19.9984 0)
(0.549359 19.9978 0)
(0.552148 19.9972 0)
(0.556631 19.9969 0)
(0.401672 19.5996 0)
(0.413319 19.6663 0)
(0.436927 19.7343 0)
(0.453938 19.7887 0)
(0.463763 19.8318 0)
(0.470429 19.8656 0)
(0.474932 19.8926 0)
(0.478553 19.9141 0)
(0.481397 19.9313 0)
(0.483743 19.9451 0)
(0.485643 19.9562 0)
(0.487196 19.9651 0)
(0.488454 19.9722 0)
(0.489472 19.9779 0)
(0.490292 19.9824 0)
(0.49095 19.9861 0)
(0.491477 19.9891 0)
(0.491898 19.9914 0)
(0.492233 19.9933 0)
(0.492499 19.9948 0)
(0.49271 19.996 0)
(0.492877 19.9969 0)
(0.49301 19.9977 0)
(0.493114 19.9983 0)
(0.493196 19.9988 0)
(0.493261 19.9992 0)
(0.493312 19.9995 0)
(0.493353 19.9997 0)
(0.493384 19.9999 0)
(0.493409 20.0001 0)
(0.493428 20.0002 0)
(0.493443 20.0003 0)
(0.493455 20.0004 0)
(0.493465 20.0004 0)
(0.493472 20.0005 0)
(0.493478 20.0005 0)
(0.493482 20.0006 0)
(0.493486 20.0006 0)
(0.493488 20.0006 0)
(0.49349 20.0006 0)
(0.493492 20.0006 0)
(0.493493 20.0006 0)
(0.493494 20.0006 0)
(0.493495 20.0006 0)
(0.493496 20.0006 0)
(0.493496 20.0006 0)
(0.493496 20.0006 0)
(0.493497 20.0006 0)
(0.493497 20.0006 0)
(0.493497 20.0007 0)
(0.493497 20.0007 0)
(0.493497 20.0007 0)
(0.493497 20.0007 0)
(0.493498 20.0007 0)
(0.493498 20.0007 0)
(0.493498 20.0007 0)
(0.493498 20.0007 0)
(0.493498 20.0007 0)
(0.493498 20.0007 0)
(0.493498 20.0007 0)
(0.493498 20.0007 0)
(0.493498 20.0007 0)
(0.493498 20.0007 0)
(0.493498 20.0007 0)
(0.493498 20.0007 0)
(0.493498 20.0007 0)
(0.493498 20.0007 0)
(0.493498 20.0007 0)
(0.493498 20.0007 0)
(0.493498 20.0007 0)
(0.493498 20.0007 0)
(0.493498 20.0007 0)
(0.493498 20.0007 0)
(0.493498 20.0007 0)
(0.493498 20.0007 0)
(0.493498 20.0007 0)
(0.493498 20.0007 0)
(0.493498 20.0007 0)
(0.493499 20.0007 0)
(0.493499 20.0007 0)
(0.4935 20.0006 0)
(0.493501 20.0006 0)
(0.493502 20.0006 0)
(0.493504 20.0006 0)
(0.493507 20.0006 0)
(0.493512 20.0006 0)
(0.493519 20.0006 0)
(0.493529 20.0006 0)
(0.493545 20.0005 0)
(0.493569 20.0005 0)
(0.493608 20.0004 0)
(0.493668 20.0002 0)
(0.493768 20 0)
(0.493937 19.9998 0)
(0.49423 19.9993 0)
(0.494763 19.9988 0)
(0.49571 19.998 0)
(0.497508 19.997 0)
(0.500316 19.9959 0)
(0.504742 19.995 0)
(0.358129 19.5795 0)
(0.367504 19.6437 0)
(0.388402 19.7146 0)
(0.403865 19.7734 0)
(0.413135 19.8198 0)
(0.419442 19.8561 0)
(0.423757 19.8849 0)
(0.427216 19.9079 0)
(0.42994 19.9263 0)
(0.432186 19.9411 0)
(0.434006 19.9529 0)
(0.435496 19.9624 0)
(0.436703 19.9701 0)
(0.43768 19.9762 0)
(0.438467 19.9811 0)
(0.4391 19.985 0)
(0.439606 19.9882 0)
(0.440011 19.9907 0)
(0.440333 19.9927 0)
(0.44059 19.9943 0)
(0.440793 19.9956 0)
(0.440954 19.9967 0)
(0.441082 19.9975 0)
(0.441183 19.9981 0)
(0.441262 19.9987 0)
(0.441325 19.9991 0)
(0.441375 19.9994 0)
(0.441414 19.9997 0)
(0.441444 19.9999 0)
(0.441468 20 0)
(0.441487 20.0002 0)
(0.441502 20.0003 0)
(0.441514 20.0004 0)
(0.441523 20.0004 0)
(0.44153 20.0005 0)
(0.441536 20.0005 0)
(0.44154 20.0005 0)
(0.441543 20.0006 0)
(0.441546 20.0006 0)
(0.441548 20.0006 0)
(0.44155 20.0006 0)
(0.441551 20.0006 0)
(0.441552 20.0006 0)
(0.441553 20.0006 0)
(0.441553 20.0006 0)
(0.441554 20.0006 0)
(0.441554 20.0006 0)
(0.441555 20.0006 0)
(0.441555 20.0006 0)
(0.441555 20.0006 0)
(0.441555 20.0007 0)
(0.441555 20.0007 0)
(0.441555 20.0007 0)
(0.441555 20.0007 0)
(0.441555 20.0007 0)
(0.441555 20.0007 0)
(0.441555 20.0007 0)
(0.441555 20.0007 0)
(0.441555 20.0007 0)
(0.441555 20.0007 0)
(0.441555 20.0007 0)
(0.441555 20.0007 0)
(0.441556 20.0007 0)
(0.441556 20.0007 0)
(0.441555 20.0007 0)
(0.441556 20.0007 0)
(0.441555 20.0007 0)
(0.441556 20.0007 0)
(0.441556 20.0007 0)
(0.441556 20.0007 0)
(0.441556 20.0007 0)
(0.441556 20.0007 0)
(0.441556 20.0007 0)
(0.441556 20.0007 0)
(0.441556 20.0007 0)
(0.441556 20.0007 0)
(0.441556 20.0007 0)
(0.441556 20.0007 0)
(0.441556 20.0007 0)
(0.441557 20.0006 0)
(0.441557 20.0006 0)
(0.441558 20.0006 0)
(0.44156 20.0006 0)
(0.441562 20.0006 0)
(0.441565 20.0006 0)
(0.441569 20.0006 0)
(0.441576 20.0006 0)
(0.441586 20.0006 0)
(0.441601 20.0005 0)
(0.441625 20.0004 0)
(0.441662 20.0004 0)
(0.441722 20.0002 0)
(0.441819 20 0)
(0.441987 19.9997 0)
(0.442277 19.9992 0)
(0.442809 19.9985 0)
(0.443751 19.9976 0)
(0.445529 19.9962 0)
(0.448273 19.9945 0)
(0.452517 19.9931 0)
(0.315083 19.5622 0)
(0.322599 19.6239 0)
(0.34079 19.6971 0)
(0.354578 19.7595 0)
(0.363108 19.8089 0)
(0.368934 19.8474 0)
(0.372964 19.8779 0)
(0.37619 19.9023 0)
(0.378735 19.9218 0)
(0.380833 19.9374 0)
(0.382535 19.95 0)
(0.383928 19.9601 0)
(0.385057 19.9682 0)
(0.385973 19.9747 0)
(0.38671 19.9799 0)
(0.387303 19.9841 0)
(0.387777 19.9874 0)
(0.388157 19.9901 0)
(0.388459 19.9922 0)
(0.3887 19.9939 0)
(0.388891 19.9953 0)
(0.389042 19.9964 0)
(0.389162 19.9973 0)
(0.389257 19.998 0)
(0.389332 19.9985 0)
(0.389391 19.999 0)
(0.389438 19.9993 0)
(0.389475 19.9996 0)
(0.389504 19.9998 0)
(0.389526 20 0)
(0.389544 20.0001 0)
(0.389558 20.0002 0)
(0.38957 20.0003 0)
(0.389578 20.0004 0)
(0.389585 20.0005 0)
(0.38959 20.0005 0)
(0.389594 20.0005 0)
(0.389598 20.0006 0)
(0.3896 20.0006 0)
(0.389602 20.0006 0)
(0.389604 20.0006 0)
(0.389605 20.0006 0)
(0.389606 20.0006 0)
(0.389607 20.0006 0)
(0.389607 20.0006 0)
(0.389608 20.0006 0)
(0.389608 20.0006 0)
(0.389608 20.0006 0)
(0.389609 20.0006 0)
(0.389609 20.0006 0)
(0.389609 20.0007 0)
(0.389609 20.0007 0)
(0.389609 20.0007 0)
(0.389609 20.0007 0)
(0.389609 20.0007 0)
(0.389609 20.0007 0)
(0.389609 20.0007 0)
(0.389609 20.0007 0)
(0.389609 20.0007 0)
(0.389609 20.0007 0)
(0.389609 20.0007 0)
(0.389609 20.0007 0)
(0.389609 20.0007 0)
(0.389609 20.0007 0)
(0.389609 20.0007 0)
(0.389609 20.0007 0)
(0.389609 20.0007 0)
(0.389609 20.0007 0)
(0.389609 20.0007 0)
(0.389609 20.0007 0)
(0.389609 20.0007 0)
(0.389609 20.0007 0)
(0.38961 20.0007 0)
(0.38961 20.0007 0)
(0.38961 20.0007 0)
(0.38961 20.0007 0)
(0.38961 20.0007 0)
(0.38961 20.0007 0)
(0.38961 20.0007 0)
(0.389611 20.0006 0)
(0.389611 20.0006 0)
(0.389612 20.0006 0)
(0.389613 20.0006 0)
(0.389615 20.0006 0)
(0.389618 20.0006 0)
(0.389622 20.0006 0)
(0.389629 20.0006 0)
(0.389638 20.0006 0)
(0.389653 20.0005 0)
(0.389675 20.0004 0)
(0.38971 20.0003 0)
(0.389767 20.0002 0)
(0.38986 19.9999 0)
(0.390021 19.9996 0)
(0.390302 19.9991 0)
(0.390816 19.9983 0)
(0.391725 19.9971 0)
(0.393431 19.9955 0)
(0.396035 19.9932 0)
(0.399994 19.9912 0)
(0.272425 19.5474 0)
(0.278407 19.6067 0)
(0.293946 19.6817 0)
(0.305975 19.7473 0)
(0.313615 19.7993 0)
(0.318857 19.8397 0)
(0.322518 19.8717 0)
(0.325445 19.8972 0)
(0.327759 19.9177 0)
(0.329665 19.9341 0)
(0.331214 19.9474 0)
(0.332481 19.958 0)
(0.33351 19.9665 0)
(0.334343 19.9733 0)
(0.335015 19.9788 0)
(0.335555 19.9832 0)
(0.335988 19.9867 0)
(0.336334 19.9895 0)
(0.33661 19.9918 0)
(0.33683 19.9936 0)
(0.337004 19.995 0)
(0.337142 19.9962 0)
(0.337252 19.9971 0)
(0.337339 19.9978 0)
(0.337407 19.9984 0)
(0.337462 19.9989 0)
(0.337504 19.9992 0)
(0.337538 19.9995 0)
(0.337565 19.9998 0)
(0.337585 19.9999 0)
(0.337602 20.0001 0)
(0.337615 20.0002 0)
(0.337625 20.0003 0)
(0.337633 20.0004 0)
(0.337639 20.0004 0)
(0.337644 20.0005 0)
(0.337648 20.0005 0)
(0.337651 20.0005 0)
(0.337654 20.0006 0)
(0.337655 20.0006 0)
(0.337657 20.0006 0)
(0.337658 20.0006 0)
(0.337659 20.0006 0)
(0.33766 20.0006 0)
(0.33766 20.0006 0)
(0.337661 20.0006 0)
(0.337661 20.0006 0)
(0.337661 20.0006 0)
(0.337661 20.0006 0)
(0.337661 20.0006 0)
(0.337662 20.0006 0)
(0.337662 20.0007 0)
(0.337662 20.0007 0)
(0.337662 20.0007 0)
(0.337662 20.0007 0)
(0.337662 20.0007 0)
(0.337662 20.0007 0)
(0.337662 20.0007 0)
(0.337662 20.0007 0)
(0.337662 20.0007 0)
(0.337662 20.0007 0)
(0.337662 20.0007 0)
(0.337662 20.0007 0)
(0.337662 20.0007 0)
(0.337662 20.0007 0)
(0.337662 20.0007 0)
(0.337662 20.0007 0)
(0.337662 20.0007 0)
(0.337662 20.0007 0)
(0.337662 20.0007 0)
(0.337662 20.0007 0)
(0.337662 20.0007 0)
(0.337662 20.0007 0)
(0.337662 20.0007 0)
(0.337662 20.0007 0)
(0.337662 20.0007 0)
(0.337662 20.0007 0)
(0.337663 20.0007 0)
(0.337663 20.0006 0)
(0.337663 20.0006 0)
(0.337664 20.0006 0)
(0.337664 20.0006 0)
(0.337666 20.0006 0)
(0.337667 20.0006 0)
(0.33767 20.0006 0)
(0.337674 20.0006 0)
(0.33768 20.0006 0)
(0.337688 20.0005 0)
(0.337702 20.0005 0)
(0.337722 20.0004 0)
(0.337755 20.0003 0)
(0.337807 20.0001 0)
(0.337894 19.9999 0)
(0.338044 19.9995 0)
(0.338306 19.9989 0)
(0.338788 19.9981 0)
(0.339637 19.9967 0)
(0.341222 19.9947 0)
(0.343619 19.992 0)
(0.347206 19.9895 0)
(0.230071 19.535 0)
(0.234772 19.5923 0)
(0.247734 19.6685 0)
(0.257952 19.7367 0)
(0.264585 19.7909 0)
(0.269157 19.833 0)
(0.272376 19.8663 0)
(0.274948 19.8929 0)
(0.276985 19.9142 0)
(0.278663 19.9313 0)
(0.280026 19.9451 0)
(0.281143 19.9561 0)
(0.282049 19.965 0)
(0.282784 19.9721 0)