/*--------------------------------*- C++ -*----------------------------------*\
| =========                 |                                                 |
| \\      /  F ield         | OpenFOAM: The Open Source CFD Toolbox           |
|  \\    /   O peration     | Version:  v1906                                 |
|   \\  /    A nd           | Web:      www.OpenFOAM.com                      |
|    \\/     M anipulation  |                                                 |
\*---------------------------------------------------------------------------*/
FoamFile
{
    version     2.0;
    format      ascii;
    class       volVectorField;
    location    "2";
    object      B;
}
// * * * * * * * * * * * * * * * * * * * * * * * * * * * * * * * * * * * * * //

dimensions      [1 0 -2 0 0 -1 0];


internalField   nonuniform List<vector> 
4000
(
(0.451472 20.0132 0)
(0.513346 19.9901 0)
(0.480117 19.9922 0)
(0.501383 19.9956 0)
(0.488735 19.9967 0)
(0.496819 19.9982 0)
(0.491818 19.9987 0)
(0.494943 19.9993 0)
(0.492938 19.9995 0)
(0.494137 19.9997 0)
(0.493326 19.9998 0)
(0.493782 19.9999 0)
(0.493452 19.9999 0)
(0.493625 20 0)
(0.493491 20 0)
(0.493557 20 0)
(0.493503 20 0)
(0.493527 20 0)
(0.493506 20 0)
(0.493515 20 0)
(0.493506 20 0)
(0.49351 20 0)
(0.493506 20 0)
(0.493508 20 0)
(0.493506 20 0)
(0.493507 20 0)
(0.493506 20 0)
(0.493507 20 0)
(0.493506 20 0)
(0.493506 20 0)
(0.493506 20 0)
(0.493506 20 0)
(0.493506 20 0)
(0.493506 20 0)
(0.493506 20 0)
(0.493506 20 0)
(0.493506 20 0)
(0.493506 20 0)
(0.493506 20 0)
(0.493506 20 0)
(0.493506 20 0)
(0.493506 20 0)
(0.493506 20 0)
(0.493506 20 0)
(0.493506 20 0)
(0.493506 20 0)
(0.493506 20 0)
(0.493506 20 0)
(0.493506 20 0)
(0.493506 20 0)
(0.493506 20 0)
(0.493506 20 0)
(0.493506 20 0)
(0.493506 20 0)
(0.493506 20 0)
(0.493506 20 0)
(0.493506 20 0)
(0.493506 20 0)
(0.493506 20 0)
(0.493506 20 0)
(0.493506 20 0)
(0.493506 20 0)
(0.493506 20 0)
(0.493506 20 0)
(0.493506 20 0)
(0.493506 20 0)
(0.493506 20 0)
(0.493506 20 0)
(0.493506 20 0)
(0.493506 20 0)
(0.493506 20 0)
(0.493506 20 0)
(0.493506 20 0)
(0.493506 20 0)
(0.493506 20 0)
(0.493506 20 0)
(0.493506 20 0)
(0.493506 20 0)
(0.493506 20 0)
(0.493506 20 0)
(0.493506 20 0)
(0.493506 20 0)
(0.493506 20 0)
(0.493506 20 0)
(0.493506 20 0)
(0.493506 20 0)
(0.493506 20 0)
(0.493506 20 0)
(0.493506 20 0)
(0.493506 20 0)
(0.493506 20 0)
(0.493506 20 0)
(0.493506 20 0)
(0.493506 20 0)
(0.493505 20 0)
(0.493506 20 0)
(0.49351 20 0)
(0.493516 20 0)
(0.493601 20 0)
(0.493274 20.0002 0)
(0.710003 19.9898 0)
(0.808784 19.9697 0)
(0.763494 19.978 0)
(0.797374 19.9876 0)
(0.778866 19.9915 0)
(0.791888 19.9957 0)
(0.784583 19.9972 0)
(0.789643 19.9989 0)
(0.786719 19.9996 0)
(0.788667 20.0003 0)
(0.787486 20.0006 0)
(0.78823 20.0008 0)
(0.78775 20.001 0)
(0.788033 20.0011 0)
(0.787838 20.0011 0)
(0.787945 20.0012 0)
(0.787866 20.0012 0)
(0.787907 20.0012 0)
(0.787875 20.0012 0)
(0.78789 20.0012 0)
(0.787877 20.0012 0)
(0.787883 20.0012 0)
(0.787878 20.0012 0)
(0.787881 20.0012 0)
(0.787879 20.0012 0)
(0.787879 20.0012 0)
(0.787879 20.0012 0)
(0.787879 20.0012 0)
(0.787879 20.0012 0)
(0.787879 20.0012 0)
(0.787879 20.0012 0)
(0.787879 20.0012 0)
(0.787879 20.0012 0)
(0.787879 20.0012 0)
(0.787879 20.0012 0)
(0.787879 20.0012 0)
(0.787879 20.0012 0)
(0.787879 20.0012 0)
(0.787879 20.0012 0)
(0.787879 20.0012 0)
(0.787879 20.0012 0)
(0.787879 20.0012 0)
(0.787879 20.0012 0)
(0.787879 20.0012 0)
(0.787879 20.0012 0)
(0.787879 20.0012 0)
(0.787879 20.0012 0)
(0.787879 20.0012 0)
(0.787879 20.0012 0)
(0.787879 20.0012 0)
(0.787879 20.0012 0)
(0.787879 20.0012 0)
(0.787879 20.0012 0)
(0.787879 20.0012 0)
(0.787879 20.0012 0)
(0.787879 20.0012 0)
(0.787879 20.0012 0)
(0.787879 20.0012 0)
(0.787879 20.0012 0)
(0.787879 20.0012 0)
(0.787879 20.0012 0)
(0.787879 20.0012 0)
(0.787879 20.0012 0)
(0.787879 20.0012 0)
(0.787879 20.0012 0)
(0.787879 20.0012 0)
(0.787879 20.0012 0)
(0.787879 20.0012 0)
(0.787879 20.0012 0)
(0.787879 20.0012 0)
(0.787879 20.0012 0)
(0.787879 20.0012 0)
(0.787879 20.0012 0)
(0.787879 20.0012 0)
(0.787879 20.0012 0)
(0.787879 20.0012 0)
(0.787879 20.0012 0)
(0.787879 20.0012 0)
(0.787879 20.0012 0)
(0.787879 20.0012 0)
(0.787879 20.0012 0)
(0.787879 20.0012 0)
(0.787879 20.0012 0)
(0.787879 20.0012 0)
(0.787879 20.0012 0)
(0.787879 20.0012 0)
(0.787879 20.0012 0)
(0.787879 20.0012 0)
(0.787878 20.0012 0)
(0.787879 20.0012 0)
(0.787878 20.0012 0)
(0.787879 20.0012 0)
(0.787879 20.0012 0)
(0.78788 20.0012 0)
(0.787881 20.0012 0)
(0.787889 20.0012 0)
(0.787909 20.0012 0)
(0.787956 20.0011 0)
(0.788159 20.0013 0)
(0.787898 20.0018 0)
(0.75913 19.942 0)
(0.863511 19.9463 0)
(0.821335 19.9629 0)
(0.858407 19.978 0)
(0.839943 19.9851 0)
(0.854355 19.9917 0)
(0.847084 19.9946 0)
(0.852715 19.9973 0)
(0.849813 19.9985 0)
(0.85199 19.9996 0)
(0.850819 20.0001 0)
(0.851655 20.0005 0)
(0.851179 20.0007 0)
(0.851499 20.0009 0)
(0.851305 20.001 0)
(0.851427 20.0011 0)
(0.851348 20.0011 0)
(0.851395 20.0011 0)
(0.851363 20.0011 0)
(0.851381 20.0011 0)
(0.851368 20.0011 0)
(0.851375 20.0011 0)
(0.85137 20.0012 0)
(0.851372 20.0012 0)
(0.85137 20.0012 0)
(0.851371 20.0012 0)
(0.851371 20.0012 0)
(0.851371 20.0012 0)
(0.851371 20.0012 0)
(0.851371 20.0012 0)
(0.851371 20.0012 0)
(0.851371 20.0012 0)
(0.851371 20.0012 0)
(0.851371 20.0012 0)
(0.851371 20.0012 0)
(0.851371 20.0012 0)
(0.851371 20.0012 0)
(0.851371 20.0012 0)
(0.851371 20.0012 0)
(0.851371 20.0012 0)
(0.851371 20.0012 0)
(0.851371 20.0012 0)
(0.851371 20.0012 0)
(0.851371 20.0012 0)
(0.851371 20.0012 0)
(0.851371 20.0012 0)
(0.851371 20.0012 0)
(0.851371 20.0012 0)
(0.851371 20.0012 0)
(0.851371 20.0012 0)
(0.851371 20.0012 0)
(0.851371 20.0012 0)
(0.851371 20.0012 0)
(0.851371 20.0012 0)
(0.851371 20.0012 0)
(0.851371 20.0012 0)
(0.851371 20.0012 0)
(0.851371 20.0012 0)
(0.851371 20.0012 0)
(0.851371 20.0012 0)
(0.851371 20.0012 0)
(0.851371 20.0012 0)
(0.851371 20.0012 0)
(0.851371 20.0012 0)
(0.851371 20.0012 0)
(0.851371 20.0012 0)
(0.851371 20.0012 0)
(0.851371 20.0012 0)
(0.851371 20.0012 0)
(0.851371 20.0012 0)
(0.851371 20.0012 0)
(0.851371 20.0012 0)
(0.851371 20.0012 0)
(0.851371 20.0012 0)
(0.851371 20.0012 0)
(0.851371 20.0012 0)
(0.851371 20.0012 0)
(0.851371 20.0012 0)
(0.851371 20.0012 0)
(0.851371 20.0012 0)
(0.851371 20.0012 0)
(0.851371 20.0012 0)
(0.851371 20.0012 0)
(0.851371 20.0012 0)
(0.851371 20.0012 0)
(0.851371 20.0012 0)
(0.851371 20.0012 0)
(0.851371 20.0012 0)
(0.851371 20.0012 0)
(0.851371 20.0012 0)
(0.851371 20.0012 0)
(0.851372 20.0012 0)
(0.851372 20.0012 0)
(0.851375 20.0011 0)
(0.851379 20.0011 0)
(0.851395 20.0011 0)
(0.851431 20.0011 0)
(0.851535 20.001 0)
(0.851861 20.0013 0)
(0.85229 20.002 0)
(0.740558 19.892 0)
(0.840075 19.9218 0)
(0.804368 19.9477 0)
(0.841576 19.968 0)
(0.824836 19.9786 0)
(0.839479 19.9874 0)
(0.832902 19.9917 0)
(0.838657 19.9953 0)
(0.83604 19.9971 0)
(0.838276 19.9986 0)
(0.837223 19.9993 0)
(0.838085 19.9999 0)
(0.837658 20.0002 0)
(0.837989 20.0005 0)
(0.837815 20.0006 0)
(0.837942 20.0007 0)
(0.837872 20.0007 0)
(0.83792 20.0008 0)
(0.837892 20.0008 0)
(0.83791 20.0008 0)
(0.837899 20.0008 0)
(0.837906 20.0008 0)
(0.837901 20.0008 0)
(0.837904 20.0008 0)
(0.837902 20.0008 0)
(0.837903 20.0008 0)
(0.837902 20.0008 0)
(0.837903 20.0008 0)
(0.837903 20.0008 0)
(0.837903 20.0008 0)
(0.837903 20.0008 0)
(0.837903 20.0008 0)
(0.837903 20.0008 0)
(0.837903 20.0008 0)
(0.837903 20.0008 0)
(0.837903 20.0008 0)
(0.837903 20.0008 0)
(0.837903 20.0008 0)
(0.837903 20.0008 0)
(0.837903 20.0008 0)
(0.837903 20.0008 0)
(0.837903 20.0008 0)
(0.837903 20.0008 0)
(0.837903 20.0008 0)
(0.837903 20.0008 0)
(0.837903 20.0008 0)
(0.837903 20.0008 0)
(0.837903 20.0008 0)
(0.837903 20.0008 0)
(0.837903 20.0008 0)
(0.837903 20.0008 0)
(0.837903 20.0008 0)
(0.837903 20.0008 0)
(0.837903 20.0008 0)
(0.837903 20.0008 0)
(0.837903 20.0008 0)
(0.837903 20.0008 0)
(0.837903 20.0008 0)
(0.837903 20.0008 0)
(0.837903 20.0008 0)
(0.837903 20.0008 0)
(0.837903 20.0008 0)
(0.837903 20.0008 0)
(0.837903 20.0008 0)
(0.837903 20.0008 0)
(0.837903 20.0008 0)
(0.837903 20.0008 0)
(0.837903 20.0008 0)
(0.837903 20.0008 0)
(0.837903 20.0008 0)
(0.837903 20.0008 0)
(0.837903 20.0008 0)
(0.837903 20.0008 0)
(0.837903 20.0008 0)
(0.837903 20.0008 0)
(0.837903 20.0008 0)
(0.837903 20.0008 0)
(0.837903 20.0008 0)
(0.837903 20.0008 0)
(0.837903 20.0008 0)
(0.837903 20.0008 0)
(0.837903 20.0008 0)
(0.837903 20.0008 0)
(0.837903 20.0008 0)
(0.837903 20.0008 0)
(0.837903 20.0008 0)
(0.837903 20.0008 0)
(0.837903 20.0008 0)
(0.837903 20.0008 0)
(0.837903 20.0008 0)
(0.837903 20.0008 0)
(0.837904 20.0008 0)
(0.837905 20.0008 0)
(0.83791 20.0008 0)
(0.837917 20.0008 0)
(0.837941 20.0008 0)
(0.837993 20.0007 0)
(0.838159 20.0006 0)
(0.838618 20.0009 0)
(0.840013 20.0017 0)
(0.700598 19.8461 0)
(0.792122 19.8976 0)
(0.76292 19.933 0)
(0.799189 19.9581 0)
(0.784536 19.9725 0)
(0.798989 19.9832 0)
(0.793246 19.9891 0)
(0.798959 19.9935 0)
(0.796683 19.9959 0)
(0.798912 19.9978 0)
(0.797999 19.9988 0)
(0.798862 19.9995 0)
(0.798492 19.9999 0)
(0.798825 20.0002 0)
(0.798675 20.0004 0)
(0.798803 20.0005 0)
(0.798742 20.0006 0)
(0.798792 20.0006 0)
(0.798767 20.0006 0)
(0.798786 20.0007 0)
(0.798776 20.0007 0)
(0.798783 20.0007 0)
(0.798779 20.0007 0)
(0.798782 20.0007 0)
(0.798781 20.0007 0)
(0.798782 20.0007 0)
(0.798781 20.0007 0)
(0.798781 20.0007 0)
(0.798781 20.0007 0)
(0.798781 20.0007 0)
(0.798781 20.0007 0)
(0.798781 20.0007 0)
(0.798781 20.0007 0)
(0.798781 20.0007 0)
(0.798781 20.0007 0)
(0.798781 20.0007 0)
(0.798781 20.0007 0)
(0.798781 20.0007 0)
(0.798781 20.0007 0)
(0.798781 20.0007 0)
(0.798781 20.0007 0)
(0.798781 20.0007 0)
(0.798781 20.0007 0)
(0.798781 20.0007 0)
(0.798781 20.0007 0)
(0.798781 20.0007 0)
(0.798781 20.0007 0)
(0.798781 20.0007 0)
(0.798781 20.0007 0)
(0.798781 20.0007 0)
(0.798781 20.0007 0)
(0.798781 20.0007 0)
(0.798781 20.0007 0)
(0.798781 20.0007 0)
(0.798781 20.0007 0)
(0.798781 20.0007 0)
(0.798781 20.0007 0)
(0.798781 20.0007 0)
(0.798781 20.0007 0)
(0.798781 20.0007 0)
(0.798781 20.0007 0)
(0.798781 20.0007 0)
(0.798781 20.0007 0)
(0.798781 20.0007 0)
(0.798781 20.0007 0)
(0.798781 20.0007 0)
(0.798781 20.0007 0)
(0.798781 20.0007 0)
(0.798781 20.0007 0)
(0.798781 20.0007 0)
(0.798781 20.0007 0)
(0.798781 20.0007 0)
(0.798781 20.0007 0)
(0.798781 20.0007 0)
(0.798781 20.0007 0)
(0.798781 20.0007 0)
(0.798781 20.0007 0)
(0.798781 20.0007 0)
(0.798781 20.0007 0)
(0.798781 20.0007 0)
(0.798781 20.0007 0)
(0.798781 20.0007 0)
(0.798781 20.0007 0)
(0.798781 20.0007 0)
(0.798781 20.0007 0)
(0.798781 20.0007 0)
(0.798781 20.0007 0)
(0.798781 20.0007 0)
(0.798781 20.0007 0)
(0.798782 20.0007 0)
(0.798782 20.0007 0)
(0.798783 20.0007 0)
(0.798785 20.0007 0)
(0.798791 20.0007 0)
(0.798801 20.0007 0)
(0.798833 20.0006 0)
(0.798899 20.0006 0)
(0.799129 20.0004 0)
(0.79972 20.0007 0)
(0.802072 20.0015 0)
(0.654378 19.8044 0)
(0.737295 19.874 0)
(0.713784 19.9187 0)
(0.748659 19.9486 0)
(0.736044 19.9666 0)
(0.750119 19.9792 0)
(0.745187 19.9866 0)
(0.750779 19.9918 0)
(0.748834 19.9949 0)
(0.751025 19.9971 0)
(0.750247 19.9983 0)
(0.751099 19.9992 0)
(0.750785 19.9997 0)
(0.751115 20.0001 0)
(0.750988 20.0003 0)
(0.751115 20.0004 0)
(0.751064 20.0005 0)
(0.751113 20.0006 0)
(0.751092 20.0006 0)
(0.751111 20.0006 0)
(0.751103 20.0007 0)
(0.75111 20.0007 0)
(0.751107 20.0007 0)
(0.751109 20.0007 0)
(0.751108 20.0007 0)
(0.751109 20.0007 0)
(0.751109 20.0007 0)
(0.751109 20.0007 0)
(0.751109 20.0007 0)
(0.751109 20.0007 0)
(0.751109 20.0007 0)
(0.751109 20.0007 0)
(0.751109 20.0007 0)
(0.751109 20.0007 0)
(0.751109 20.0007 0)
(0.751109 20.0007 0)
(0.751109 20.0007 0)
(0.751109 20.0007 0)
(0.751109 20.0007 0)
(0.751109 20.0007 0)
(0.751109 20.0007 0)
(0.751109 20.0007 0)
(0.751109 20.0007 0)
(0.751109 20.0007 0)
(0.751109 20.0007 0)
(0.751109 20.0007 0)
(0.751109 20.0007 0)
(0.751109 20.0007 0)
(0.751109 20.0007 0)
(0.751109 20.0007 0)
(0.751109 20.0007 0)
(0.751109 20.0007 0)
(0.751109 20.0007 0)
(0.751109 20.0007 0)
(0.751109 20.0007 0)
(0.751109 20.0007 0)
(0.751109 20.0007 0)
(0.751109 20.0007 0)
(0.751109 20.0007 0)
(0.751109 20.0007 0)
(0.751109 20.0007 0)
(0.751109 20.0007 0)
(0.751109 20.0007 0)
(0.751109 20.0007 0)
(0.751109 20.0007 0)
(0.751109 20.0007 0)
(0.751109 20.0007 0)
(0.751109 20.0007 0)
(0.751109 20.0007 0)
(0.751109 20.0007 0)
(0.751109 20.0007 0)
(0.751109 20.0007 0)
(0.751109 20.0007 0)
(0.751109 20.0007 0)
(0.751109 20.0007 0)
(0.751109 20.0007 0)
(0.751109 20.0007 0)
(0.751109 20.0007 0)
(0.751109 20.0007 0)
(0.751109 20.0007 0)
(0.751109 20.0007 0)
(0.751109 20.0007 0)
(0.751109 20.0007 0)
(0.751109 20.0007 0)
(0.751109 20.0007 0)
(0.751109 20.0007 0)
(0.751109 20.0007 0)
(0.751109 20.0007 0)
(0.751109 20.0007 0)
(0.751109 20.0007 0)
(0.75111 20.0007 0)
(0.751111 20.0007 0)
(0.751114 20.0007 0)
(0.751121 20.0007 0)
(0.751133 20.0006 0)
(0.751172 20.0006 0)
(0.751251 20.0005 0)
(0.751541 20.0003 0)
(0.752254 20.0005 0)
(0.755425 20.0011 0)
(0.606785 19.7666 0)
(0.681316 19.8513 0)
(0.662551 19.9049 0)
(0.695771 19.9394 0)
(0.685025 19.9609 0)
(0.698601 19.9753 0)
(0.694413 19.9842 0)
(0.699834 19.9902 0)
(0.698192 19.9939 0)
(0.700322 19.9964 0)
(0.699668 19.9979 0)
(0.700499 19.9989 0)
(0.700236 19.9995 0)
(0.70056 20 0)
(0.700453 20.0002 0)
(0.700579 20.0004 0)
(0.700536 20.0005 0)
(0.700584 20.0006 0)
(0.700567 20.0006 0)
(0.700586 20.0006 0)
(0.700579 20.0006 0)
(0.700586 20.0007 0)
(0.700583 20.0007 0)
(0.700586 20.0007 0)
(0.700585 20.0007 0)
(0.700586 20.0007 0)
(0.700586 20.0007 0)
(0.700586 20.0007 0)
(0.700586 20.0007 0)
(0.700586 20.0007 0)
(0.700586 20.0007 0)
(0.700586 20.0007 0)
(0.700586 20.0007 0)
(0.700586 20.0007 0)
(0.700586 20.0007 0)
(0.700586 20.0007 0)
(0.700586 20.0007 0)
(0.700586 20.0007 0)
(0.700586 20.0007 0)
(0.700586 20.0007 0)
(0.700586 20.0007 0)
(0.700586 20.0007 0)
(0.700586 20.0007 0)
(0.700586 20.0007 0)
(0.700586 20.0007 0)
(0.700586 20.0007 0)
(0.700586 20.0007 0)
(0.700586 20.0007 0)
(0.700586 20.0007 0)
(0.700586 20.0007 0)
(0.700586 20.0007 0)
(0.700586 20.0007 0)
(0.700586 20.0007 0)
(0.700586 20.0007 0)
(0.700586 20.0007 0)
(0.700586 20.0007 0)
(0.700586 20.0007 0)
(0.700586 20.0007 0)
(0.700586 20.0007 0)
(0.700586 20.0007 0)
(0.700586 20.0007 0)
(0.700586 20.0007 0)
(0.700586 20.0007 0)
(0.700586 20.0007 0)
(0.700586 20.0007 0)
(0.700586 20.0007 0)
(0.700586 20.0007 0)
(0.700586 20.0007 0)
(0.700586 20.0007 0)
(0.700586 20.0007 0)
(0.700586 20.0007 0)
(0.700586 20.0007 0)
(0.700586 20.0007 0)
(0.700586 20.0007 0)
(0.700586 20.0007 0)
(0.700586 20.0007 0)
(0.700586 20.0007 0)
(0.700586 20.0007 0)
(0.700586 20.0007 0)
(0.700586 20.0007 0)
(0.700586 20.0007 0)
(0.700586 20.0007 0)
(0.700586 20.0007 0)
(0.700586 20.0007 0)
(0.700586 20.0007 0)
(0.700586 20.0007 0)
(0.700586 20.0007 0)
(0.700586 20.0007 0)
(0.700586 20.0007 0)
(0.700587 20.0007 0)
(0.700587 20.0007 0)
(0.700589 20.0007 0)
(0.700592 20.0007 0)
(0.7006 20.0006 0)
(0.700614 20.0006 0)
(0.700658 20.0006 0)
(0.700748 20.0005 0)
(0.701093 20.0002 0)
(0.701911 20.0003 0)
(0.705721 20.0007 0)
(0.559327 19.7324 0)
(0.625948 19.8297 0)
(0.611064 19.8917 0)
(0.642435 19.9304 0)
(0.633361 19.9554 0)
(0.646342 19.9716 0)
(0.642818 19.9819 0)
(0.648026 19.9886 0)
(0.646653 19.9929 0)
(0.648706 19.9957 0)
(0.648161 19.9975 0)
(0.648965 19.9986 0)
(0.648747 19.9994 0)
(0.64906 19.9998 0)
(0.648972 20.0001 0)
(0.649095 20.0003 0)
(0.649059 20.0005 0)
(0.649107 20.0005 0)
(0.649092 20.0006 0)
(0.649111 20.0006 0)
(0.649105 20.0006 0)
(0.649112 20.0006 0)
(0.64911 20.0007 0)
(0.649113 20.0007 0)
(0.649112 20.0007 0)
(0.649113 20.0007 0)
(0.649113 20.0007 0)
(0.649113 20.0007 0)
(0.649113 20.0007 0)
(0.649113 20.0007 0)
(0.649113 20.0007 0)
(0.649113 20.0007 0)
(0.649113 20.0007 0)
(0.649113 20.0007 0)
(0.649113 20.0007 0)
(0.649113 20.0007 0)
(0.649113 20.0007 0)
(0.649113 20.0007 0)
(0.649113 20.0007 0)
(0.649113 20.0007 0)
(0.649113 20.0007 0)
(0.649113 20.0007 0)
(0.649113 20.0007 0)
(0.649113 20.0007 0)
(0.649113 20.0007 0)
(0.649113 20.0007 0)
(0.649113 20.0007 0)
(0.649113 20.0007 0)
(0.649113 20.0007 0)
(0.649113 20.0007 0)
(0.649113 20.0007 0)
(0.649113 20.0007 0)
(0.649113 20.0007 0)
(0.649113 20.0007 0)
(0.649113 20.0007 0)
(0.649113 20.0007 0)
(0.649113 20.0007 0)
(0.649113 20.0007 0)
(0.649113 20.0007 0)
(0.649113 20.0007 0)
(0.649113 20.0007 0)
(0.649113 20.0007 0)
(0.649113 20.0007 0)
(0.649113 20.0007 0)
(0.649113 20.0007 0)
(0.649113 20.0007 0)
(0.649113 20.0007 0)
(0.649113 20.0007 0)
(0.649113 20.0007 0)
(0.649113 20.0007 0)
(0.649113 20.0007 0)
(0.649113 20.0007 0)
(0.649113 20.0007 0)
(0.649113 20.0007 0)
(0.649113 20.0007 0)
(0.649113 20.0007 0)
(0.649113 20.0007 0)
(0.649113 20.0007 0)
(0.649113 20.0007 0)
(0.649113 20.0007 0)
(0.649113 20.0007 0)
(0.649113 20.0007 0)
(0.649113 20.0007 0)
(0.649113 20.0007 0)
(0.649113 20.0007 0)
(0.649113 20.0007 0)
(0.649113 20.0007 0)
(0.649113 20.0007 0)
(0.649113 20.0007 0)
(0.649114 20.0007 0)
(0.649114 20.0007 0)
(0.649116 20.0007 0)
(0.649119 20.0007 0)
(0.649128 20.0006 0)
(0.649144 20.0006 0)
(0.649193 20.0005 0)
(0.649291 20.0004 0)
(0.649681 20.0001 0)
(0.650582 20 0)
(0.65485 20.0001 0)
(0.512409 19.7017 0)
(0.57165 19.8094 0)
(0.559909 19.8791 0)
(0.58927 19.9219 0)
(0.581671 19.9502 0)
(0.593968 19.968 0)
(0.591031 19.9797 0)
(0.595985 19.9871 0)
(0.594849 19.992 0)
(0.596807 19.995 0)
(0.596359 19.9971 0)
(0.597128 19.9984 0)
(0.596949 19.9992 0)
(0.59725 19.9997 0)
(0.597179 20.0001 0)
(0.597296 20.0003 0)
(0.597267 20.0004 0)
(0.597313 20.0005 0)
(0.597302 20.0006 0)
(0.59732 20.0006 0)
(0.597315 20.0006 0)
(0.597322 20.0006 0)
(0.59732 20.0007 0)
(0.597323 20.0007 0)
(0.597322 20.0007 0)
(0.597323 20.0007 0)
(0.597323 20.0007 0)
(0.597323 20.0007 0)
(0.597323 20.0007 0)
(0.597323 20.0007 0)
(0.597323 20.0007 0)
(0.597323 20.0007 0)
(0.597323 20.0007 0)
(0.597323 20.0007 0)
(0.597323 20.0007 0)
(0.597323 20.0007 0)
(0.597323 20.0007 0)
(0.597323 20.0007 0)
(0.597323 20.0007 0)
(0.597323 20.0007 0)
(0.597323 20.0007 0)
(0.597323 20.0007 0)
(0.597323 20.0007 0)
(0.597323 20.0007 0)
(0.597323 20.0007 0)
(0.597323 20.0007 0)
(0.597323 20.0007 0)
(0.597323 20.0007 0)
(0.597323 20.0007 0)
(0.597323 20.0007 0)
(0.597323 20.0007 0)
(0.597323 20.0007 0)
(0.597323 20.0007 0)
(0.597323 20.0007 0)
(0.597323 20.0007 0)
(0.597323 20.0007 0)
(0.597323 20.0007 0)
(0.597323 20.0007 0)
(0.597323 20.0007 0)
(0.597323 20.0007 0)
(0.597323 20.0007 0)
(0.597323 20.0007 0)
(0.597323 20.0007 0)
(0.597323 20.0007 0)
(0.597323 20.0007 0)
(0.597323 20.0007 0)
(0.597323 20.0007 0)
(0.597323 20.0007 0)
(0.597323 20.0007 0)
(0.597323 20.0007 0)
(0.597323 20.0007 0)
(0.597323 20.0007 0)
(0.597323 20.0007 0)
(0.597323 20.0007 0)
(0.597323 20.0007 0)
(0.597323 20.0007 0)
(0.597323 20.0007 0)
(0.597323 20.0007 0)
(0.597323 20.0007 0)
(0.597323 20.0007 0)
(0.597323 20.0007 0)
(0.597323 20.0007 0)
(0.597323 20.0007 0)
(0.597323 20.0007 0)
(0.597323 20.0007 0)
(0.597323 20.0007 0)
(0.597323 20.0007 0)
(0.597324 20.0007 0)
(0.597324 20.0007 0)
(0.597324 20.0007 0)
(0.597325 20.0007 0)
(0.597327 20.0007 0)
(0.59733 20.0007 0)
(0.597339 20.0006 0)
(0.597356 20.0006 0)
(0.597408 20.0005 0)
(0.597513 20.0004 0)
(0.597938 20 0)
(0.598897 19.9997 0)
(0.60345 19.9994 0)
(0.466083 19.6743 0)
(0.518459 19.7904 0)
(0.509251 19.8673 0)
(0.536461 19.9138 0)
(0.530151 19.9453 0)
(0.541679 19.9646 0)
(0.539255 19.9776 0)
(0.543919 19.9856 0)
(0.542988 19.9911 0)
(0.544836 19.9944 0)
(0.544472 19.9967 0)
(0.545199 19.9981 0)
(0.545055 19.999 0)
(0.54534 19.9996 0)
(0.545283 20 0)
(0.545394 20.0002 0)
(0.545371 20.0004 0)
(0.545415 20.0005 0)
(0.545406 20.0006 0)
(0.545423 20.0006 0)
(0.54542 20.0006 0)
(0.545426 20.0006 0)
(0.545425 20.0006 0)
(0.545427 20.0007 0)
(0.545427 20.0007 0)
(0.545428 20.0007 0)
(0.545428 20.0007 0)
(0.545428 20.0007 0)
(0.545428 20.0007 0)
(0.545428 20.0007 0)
(0.545428 20.0007 0)
(0.545428 20.0007 0)
(0.545428 20.0007 0)
(0.545428 20.0007 0)
(0.545428 20.0007 0)
(0.545428 20.0007 0)
(0.545428 20.0007 0)
(0.545428 20.0007 0)
(0.545428 20.0007 0)
(0.545428 20.0007 0)
(0.545428 20.0007 0)
(0.545428 20.0007 0)
(0.545428 20.0007 0)
(0.545428 20.0007 0)
(0.545428 20.0007 0)
(0.545428 20.0007 0)
(0.545428 20.0007 0)
(0.545428 20.0007 0)
(0.545428 20.0007 0)
(0.545428 20.0007 0)
(0.545428 20.0007 0)
(0.545428 20.0007 0)
(0.545428 20.0007 0)
(0.545428 20.0007 0)
(0.545428 20.0007 0)
(0.545428 20.0007 0)
(0.545428 20.0007 0)
(0.545428 20.0007 0)
(0.545428 20.0007 0)
(0.545428 20.0007 0)
(0.545428 20.0007 0)
(0.545428 20.0007 0)
(0.545428 20.0007 0)
(0.545428 20.0007 0)
(0.545428 20.0007 0)
(0.545428 20.0007 0)
(0.545428 20.0007 0)
(0.545428 20.0007 0)
(0.545428 20.0007 0)
(0.545428 20.0007 0)
(0.545428 20.0007 0)
(0.545428 20.0007 0)
(0.545428 20.0007 0)
(0.545428 20.0007 0)
(0.545428 20.0007 0)
(0.545428 20.0007 0)
(0.545428 20.0007 0)
(0.545428 20.0007 0)
(0.545428 20.0007 0)
(0.545428 20.0007 0)
(0.545428 20.0007 0)
(0.545428 20.0007 0)
(0.545428 20.0007 0)
(0.545428 20.0007 0)
(0.545428 20.0007 0)
(0.545428 20.0007 0)
(0.545428 20.0007 0)
(0.545428 20.0007 0)
(0.545428 20.0007 0)
(0.545429 20.0007 0)
(0.545429 20.0007 0)
(0.545432 20.0007 0)
(0.545435 20.0006 0)
(0.545444 20.0006 0)
(0.545462 20.0006 0)
(0.545516 20.0005 0)
(0.545624 20.0003 0)
(0.546072 19.9999 0)
(0.547063 19.9993 0)
(0.551741 19.9987 0)
(0.420298 19.6499 0)
(0.466286 19.773 0)
(0.459109 19.8563 0)
(0.484045 19.9063 0)
(0.478853 19.9407 0)
(0.489535 19.9614 0)
(0.487555 19.9756 0)
(0.491893 19.9843 0)
(0.491139 19.9902 0)
(0.492862 19.9938 0)
(0.492569 19.9963 0)
(0.493248 19.9978 0)
(0.493133 19.9989 0)
(0.4934 19.9995 0)
(0.493355 19.9999 0)
(0.49346 20.0002 0)
(0.493442 20.0004 0)
(0.493483 20.0005 0)
(0.493476 20.0005 0)
(0.493492 20.0006 0)
(0.493489 20.0006 0)
(0.493496 20.0006 0)
(0.493494 20.0006 0)
(0.493497 20.0007 0)
(0.493496 20.0007 0)
(0.493497 20.0007 0)
(0.493497 20.0007 0)
(0.493497 20.0007 0)
(0.493497 20.0007 0)
(0.493498 20.0007 0)
(0.493498 20.0007 0)
(0.493498 20.0007 0)
(0.493498 20.0007 0)
(0.493498 20.0007 0)
(0.493498 20.0007 0)
(0.493498 20.0007 0)
(0.493498 20.0007 0)
(0.493498 20.0007 0)
(0.493498 20.0007 0)
(0.493498 20.0007 0)
(0.493498 20.0007 0)
(0.493498 20.0007 0)
(0.493498 20.0007 0)
(0.493498 20.0007 0)
(0.493498 20.0007 0)
(0.493498 20.0007 0)
(0.493498 20.0007 0)
(0.493498 20.0007 0)
(0.493498 20.0007 0)
(0.493498 20.0007 0)
(0.493498 20.0007 0)
(0.493498 20.0007 0)
(0.493498 20.0007 0)
(0.493498 20.0007 0)
(0.493498 20.0007 0)
(0.493498 20.0007 0)
(0.493498 20.0007 0)
(0.493498 20.0007 0)
(0.493498 20.0007 0)
(0.493498 20.0007 0)
(0.493498 20.0007 0)
(0.493498 20.0007 0)
(0.493498 20.0007 0)
(0.493498 20.0007 0)
(0.493498 20.0007 0)
(0.493498 20.0007 0)
(0.493498 20.0007 0)
(0.493498 20.0007 0)
(0.493498 20.0007 0)
(0.493498 20.0007 0)
(0.493498 20.0007 0)
(0.493498 20.0007 0)
(0.493498 20.0007 0)
(0.493498 20.0007 0)
(0.493498 20.0007 0)
(0.493498 20.0007 0)
(0.493498 20.0007 0)
(0.493498 20.0007 0)
(0.493498 20.0007 0)
(0.493498 20.0007 0)
(0.493498 20.0007 0)
(0.493498 20.0007 0)
(0.493498 20.0007 0)
(0.493498 20.0007 0)
(0.493498 20.0007 0)
(0.493498 20.0007 0)
(0.493498 20.0007 0)
(0.493498 20.0007 0)
(0.493498 20.0007 0)
(0.493498 20.0007 0)
(0.493499 20.0007 0)
(0.493501 20.0007 0)
(0.493504 20.0006 0)
(0.493514 20.0006 0)
(0.493531 20.0006 0)
(0.493586 20.0005 0)
(0.493695 20.0003 0)
(0.494152 19.9998 0)
(0.495148 19.999 0)
(0.499806 19.998 0)
(0.374981 19.6283 0)
(0.415009 19.7572 0)
(0.409456 19.8462 0)
(0.432012 19.8994 0)
(0.427782 19.9365 0)
(0.437546 19.9584 0)
(0.435947 19.9738 0)
(0.439924 19.983 0)
(0.439322 19.9895 0)
(0.440904 19.9933 0)
(0.440672 19.996 0)
(0.441298 19.9976 0)
(0.441207 19.9987 0)
(0.441454 19.9994 0)
(0.441418 19.9999 0)
(0.441515 20.0001 0)
(0.441502 20.0003 0)
(0.44154 20.0005 0)
(0.441534 20.0005 0)
(0.441549 20.0006 0)
(0.441547 20.0006 0)
(0.441553 20.0006 0)
(0.441552 20.0006 0)
(0.441555 20.0007 0)
(0.441554 20.0007 0)
(0.441555 20.0007 0)
(0.441555 20.0007 0)
(0.441555 20.0007 0)
(0.441555 20.0007 0)
(0.441555 20.0007 0)
(0.441555 20.0007 0)
(0.441555 20.0007 0)
(0.441555 20.0007 0)
(0.441555 20.0007 0)
(0.441555 20.0007 0)
(0.441555 20.0007 0)
(0.441555 20.0007 0)
(0.441555 20.0007 0)
(0.441555 20.0007 0)
(0.441555 20.0007 0)
(0.441555 20.0007 0)
(0.441555 20.0007 0)
(0.441555 20.0007 0)
(0.441555 20.0007 0)
(0.441555 20.0007 0)
(0.441555 20.0007 0)
(0.441555 20.0007 0)
(0.441555 20.0007 0)
(0.441555 20.0007 0)
(0.441555 20.0007 0)
(0.441555 20.0007 0)
(0.441555 20.0007 0)
(0.441555 20.0007 0)
(0.441555 20.0007 0)
(0.441555 20.0007 0)
(0.441555 20.0007 0)
(0.441555 20.0007 0)
(0.441555 20.0007 0)
(0.441555 20.0007 0)
(0.441555 20.0007 0)
(0.441555 20.0007 0)
(0.441555 20.0007 0)
(0.441555 20.0007 0)
(0.441555 20.0007 0)
(0.441555 20.0007 0)
(0.441555 20.0007 0)
(0.441555 20.0007 0)
(0.441555 20.0007 0)
(0.441555 20.0007 0)
(0.441555 20.0007 0)
(0.441555 20.0007 0)
(0.441555 20.0007 0)
(0.441555 20.0007 0)
(0.441555 20.0007 0)
(0.441555 20.0007 0)
(0.441555 20.0007 0)
(0.441555 20.0007 0)
(0.441555 20.0007 0)
(0.441555 20.0007 0)
(0.441555 20.0007 0)
(0.441555 20.0007 0)
(0.441555 20.0007 0)
(0.441555 20.0007 0)
(0.441555 20.0007 0)
(0.441555 20.0007 0)
(0.441556 20.0007 0)
(0.441556 20.0007 0)
(0.441556 20.0007 0)
(0.441556 20.0007 0)
(0.441556 20.0007 0)
(0.441557 20.0007 0)
(0.441559 20.0007 0)
(0.441562 20.0006 0)
(0.441571 20.0006 0)
(0.441588 20.0006 0)
(0.441642 20.0005 0)
(0.441749 20.0002 0)
(0.442203 19.9997 0)
(0.443177 19.9987 0)
(0.447685 19.9973 0)
(0.330057 19.6095 0)
(0.364506 19.7431 0)
(0.360245 19.8371 0)
(0.380332 19.8931 0)
(0.376925 19.9326 0)
(0.385703 19.9557 0)
(0.384428 19.9722 0)
(0.388015 19.9819 0)
(0.387541 19.9888 0)
(0.38897 19.9928 0)
(0.388789 19.9957 0)
(0.389354 19.9974 0)
(0.389285 19.9986 0)
(0.389508 19.9993 0)
(0.389481 19.9998 0)
(0.389569 20.0001 0)
(0.389559 20.0003 0)
(0.389593 20.0004 0)
(0.389589 20.0005 0)
(0.389603 20.0006 0)
(0.389602 20.0006 0)
(0.389607 20.0006 0)
(0.389606 20.0006 0)
(0.389608 20.0006 0)
(0.389608 20.0007 0)
(0.389609 20.0007 0)
(0.389609 20.0007 0)
(0.389609 20.0007 0)
(0.389609 20.0007 0)
(0.389609 20.0007 0)
(0.389609 20.0007 0)
(0.389609 20.0007 0)
(0.389609 20.0007 0)
(0.389609 20.0007 0)
(0.389609 20.0007 0)
(0.389609 20.0007 0)
(0.389609 20.0007 0)
(0.389609 20.0007 0)
(0.389609 20.0007 0)
(0.389609 20.0007 0)
(0.389609 20.0007 0)
(0.389609 20.0007 0)
(0.389609 20.0007 0)
(0.389609 20.0007 0)
(0.389609 20.0007 0)
(0.389609 20.0007 0)
(0.389609 20.0007 0)
(0.389609 20.0007 0)
(0.389609 20.0007 0)
(0.389609 20.0007 0)
(0.389609 20.0007 0)
(0.389609 20.0007 0)
(0.389609 20.0007 0)
(0.389609 20.0007 0)
(0.389609 20.0007 0)
(0.389609 20.0007 0)
(0.389609 20.0007 0)
(0.389609 20.0007 0)
(0.389609 20.0007 0)
(0.389609 20.0007 0)
(0.389609 20.0007 0)
(0.389609 20.0007 0)
(0.389609 20.0007 0)
(0.389609 20.0007 0)
(0.389609 20.0007 0)
(0.389609 20.0007 0)
(0.389609 20.0007 0)
(0.389609 20.0007 0)
(0.389609 20.0007 0)
(0.389609 20.0007 0)
(0.389609 20.0007 0)
(0.389609 20.0007 0)
(0.389609 20.0007 0)
(0.389609 20.0007 0)
(0.389609 20.0007 0)
(0.389609 20.0007 0)
(0.389609 20.0007 0)
(0.389609 20.0007 0)
(0.389609 20.0007 0)
(0.389609 20.0007 0)
(0.389609 20.0007 0)
(0.389609 20.0007 0)
(0.389609 20.0007 0)
(0.389609 20.0007 0)
(0.389609 20.0007 0)
(0.389609 20.0007 0)
(0.389609 20.0007 0)
(0.38961 20.0007 0)
(0.38961 20.0007 0)
(0.38961 20.0007 0)
(0.389611 20.0007 0)
(0.389613 20.0007 0)
(0.389616 20.0006 0)
(0.389624 20.0006 0)
(0.38964 20.0006 0)
(0.389691 20.0004 0)
(0.389794 20.0002 0)
(0.390231 19.9996 0)
(0.391158 19.9983 0)
(0.395402 19.9966 0)
(0.285459 19.5933 0)
(0.314661 19.7306 0)
(0.311426 19.829 0)
(0.328969 19.8876 0)
(0.326262 19.9292 0)
(0.333994 19.9533 0)
(0.332994 19.9707 0)
(0.336161 19.9808 0)
(0.335794 19.9881 0)
(0.337058 19.9924 0)
(0.336919 19.9954 0)
(0.33742 19.9972 0)
(0.337367 19.9985 0)
(0.337565 19.9992 0)
(0.337545 19.9997 0)
(0.337623 20.0001 0)
(0.337616 20.0003 0)
(0.337647 20.0004 0)
(0.337644 20.0005 0)
(0.337656 20.0006 0)
(0.337655 20.0006 0)
(0.33766 20.0006 0)
(0.337659 20.0006 0)
(0.337661 20.0006 0)
(0.337661 20.0007 0)
(0.337662 20.0007 0)
(0.337662 20.0007 0)
(0.337662 20.0007 0)
(0.337662 20.0007 0)
(0.337662 20.0007 0)
(0.337662 20.0007 0)
(0.337662 20.0007 0)
(0.337662 20.0007 0)
(0.337662 20.0007 0)
(0.337662 20.0007 0)
(0.337662 20.0007 0)
(0.337662 20.0007 0)
(0.337662 20.0007 0)
(0.337662 20.0007 0)
(0.337662 20.0007 0)
(0.337662 20.0007 0)
(0.337662 20.0007 0)
(0.337662 20.0007 0)
(0.337662 20.0007 0)
(0.337662 20.0007 0)
(0.337662 20.0007 0)
(0.337662 20.0007 0)
(0.337662 20.0007 0)
(0.337662 20.0007 0)
(0.337662 20.0007 0)
(0.337662 20.0007 0)
(0.337662 20.0007 0)
(0.337662 20.0007 0)
(0.337662 20.0007 0)
(0.337662 20.0007 0)
(0.337662 20.0007 0)
(0.337662 20.0007 0)
(0.337662 20.0007 0)
(0.337662 20.0007 0)
(0.337662 20.0007 0)
(0.337662 20.0007 0)
(0.337662 20.0007 0)
(0.337662 20.0007 0)
(0.337662 20.0007 0)
(0.337662 20.0007 0)
(0.337662 20.0007 0)
(0.337662 20.0007 0)
(0.337662 20.0007 0)
(0.337662 20.0007 0)
(0.337662 20.0007 0)
(0.337662 20.0007 0)
(0.337662 20.0007 0)
(0.337662 20.0007 0)
(0.337662 20.0007 0)
(0.337662 20.0007 0)
(0.337662 20.0007 0)
(0.337662 20.0007 0)
(0.337662 20.0007 0)
(0.337662 20.0007 0)
(0.337662 20.0007 0)
(0.337662 20.0007 0)
(0.337662 20.0007 0)
(0.337662 20.0007 0)
(0.337662 20.0007 0)
(0.337662 20.0007 0)
(0.337662 20.0007 0)
(0.337662 20.0007 0)
(0.337662 20.0007 0)
(0.337662 20.0007 0)
(0.337663 20.0007 0)
(0.337663 20.0007 0)
(0.337665 20.0007 0)
(0.337668 20.0006 0)
(0.337676 20.0006 0)
(0.337691 20.0006 0)
(0.337738 20.0004 0)
(0.337833 20.0001 0)
(0.338241 19.9996 0)
(0.339096 19.998 0)
(0.342975 19.996 0)
(0.241128 19.5795 0)
(0.265367 19.7199 0)
(0.262945 19.822 0)
(0.277884 19.8827 0)
(0.275771 19.9262 0)
(0.282405 19.9512 0)
(0.281634 19.9695 0)
(0.284357 19.9799 0)
(0.284078 19.9876 0)
(0.285166 19.992 0)
(0.285062 19.9952 0)
(0.285494 19.997 0)