/*--------------------------------*- C++ -*----------------------------------*\
| =========                 |                                                 |
| \\      /  F ield         | OpenFOAM: The Open Source CFD Toolbox           |
|  \\    /   O peration     | Version:  v1906                                 |
|   \\  /    A nd           | Web:      www.OpenFOAM.com                      |
|    \\/     M anipulation  |                                                 |
\*---------------------------------------------------------------------------*/
FoamFile
{
    version     2.0;
    format      ascii;
    class       volScalarField;
    location    "2";
    object      p;
}
// * * * * * * * * * * * * * * * * * * * * * * * * * * * * * * * * * * * * * //

dimensions      [0 2 -2 0 0 0 0];


internalField   nonuniform List<scalar> 
4000
(
627.562
600.779
595.187
587.416
580.692
573.696
566.971
560.316
553.802
547.373
541.025
534.737
528.5
522.302
516.136
509.997
503.878
497.777
491.689
485.613
479.546
473.486
467.432
461.383
455.337
449.295
443.255
437.217
431.18
425.145
419.111
413.078
407.045
401.013
394.982
388.951
382.919
376.889
370.858
364.827
358.797
352.767
346.736
340.706
334.676
328.646
322.616
316.586
310.556
304.526
298.496
292.466
286.436
280.406
274.376
268.346
262.316
256.286
250.256
244.226
238.196
232.166
226.136
220.106
214.076
208.046
202.016
195.986
189.956
183.926
177.896
171.866
165.836
159.807
153.777
147.747
141.717
135.687
129.657
123.628
117.598
111.568
105.538
99.5087
93.4791
87.4496
81.4203
75.3912
69.3623
63.334
57.3064
51.2799
45.255
39.2323
33.2127
27.1962
21.1849
15.1733
9.20039
3.20475
622.169
600.833
595.053
587.144
580.404
573.402
566.679
560.024
553.51
547.08
540.731
534.443
528.204
522.006
515.84
509.7
503.582
497.48
491.393
485.316
479.249
473.189
467.135
461.085
455.04
448.997
442.957
436.919
430.883
424.848
418.814
412.781
406.748
400.716
394.684
388.653
382.622
376.591
370.561
364.53
358.5
352.469
346.439
340.409
334.379
328.349
322.319
316.288
310.258
304.228
298.198
292.168
286.138
280.108
274.078
268.048
262.018
255.988
249.958
243.928
237.898
231.868
225.838
219.808
213.778
207.748
201.718
195.689
189.659
183.629
177.599
171.569
165.539
159.509
153.479
147.449
141.42
135.39
129.36
123.33
117.3
111.271
105.241
99.2114
93.1818
87.1523
81.1229
75.0938
69.065
63.0367
57.0091
50.9826
44.9576
38.9349
32.9153
26.8988
20.8882
14.8778
8.90805
2.92883
618.661
600.857
594.97
586.97
580.223
573.209
566.486
559.829
553.314
546.883
540.534
534.244
528.006
521.807
515.64
509.5
503.382
497.28
491.192
485.116
479.048
472.988
466.934
460.885
454.839
448.797
442.757
436.719
430.682
424.647
418.613
412.58
406.547
400.515
394.484
388.452
382.421
376.39
370.36
364.329
358.299
352.268
346.238
340.208
334.178
328.148
322.118
316.087
310.057
304.027
297.997
291.967
285.937
279.907
273.877
267.847
261.817
255.787
249.757
243.727
237.697
231.667
225.637
219.607
213.577
207.547
201.517
195.488
189.458
183.428
177.398
171.368
165.338
159.308
153.278
147.249
141.219
135.189
129.159
123.129
117.099
111.07
105.04
99.0104
92.9808
86.9513
80.922
74.8928
68.864
62.8357
56.8081
50.7816
44.7566
38.7339
32.7143
26.6979
20.6876
14.6782
8.71162
2.74421
616.758
600.978
594.98
586.943
580.187
573.162
566.437
559.778
553.263
546.83
540.48
534.19
527.951
521.752
515.585
509.445
503.326
497.224
491.136
485.059
478.992
472.932
466.877
460.828
454.782
448.74
442.7
436.662
430.625
424.59
418.556
412.523
406.49
400.458
394.427
388.395
382.364
376.333
370.303
364.272
358.242
352.212
346.181
340.151
334.121
328.091
322.061
316.031
310
303.97
297.94
291.91
285.88
279.85
273.82
267.79
261.76
255.73
249.7
243.67
237.64
231.61
225.58
219.55
213.52
207.49
201.461
195.431
189.401
183.371
177.341
171.311
165.281
159.251
153.221
147.192
141.162
135.132
129.102
123.072
117.043
111.013
104.983
98.9534
92.9238
86.8944
80.865
74.8359
68.8071
62.7787
56.7511
50.7246
44.6996
38.6768
32.6572
26.6409
20.631
14.6215
8.65502
2.68941
615.462
601.15
595.055
587.002
580.232
573.195
566.469
559.807
553.291
546.858
540.507
534.217
527.977
521.777
515.61
509.47
503.351
497.249
491.161
485.084
479.016
472.956
466.902
460.852
454.806
448.764
442.724
436.686
430.649
424.614
418.58
412.547
406.514
400.482
394.451
388.419
382.388
376.357
370.327
364.296
358.266
352.236
346.205
340.175
334.145
328.115
322.085
316.055
310.025
303.994
297.964
291.934
285.904
279.874
273.844
267.814
261.784
255.754
249.724
243.694
237.664
231.634
225.604
219.574
213.544
207.515
201.485
195.455
189.425
183.395
177.365
171.335
165.305
159.275
153.245
147.216
141.186
135.156
129.126
123.096
117.067
111.037
105.007
98.9775
92.9479
86.9184
80.889
74.8599
68.8311
62.8027
56.7751
50.7485
44.7235
38.7008
32.6812
26.665
20.6553
14.6456
8.67741
2.70764
614.415
601.314
595.157
587.096
580.307
573.259
566.531
559.867
553.351
546.917
540.566
534.274
528.034
521.834
515.667
509.526
503.407
497.305
491.217
485.14
479.072
473.012
466.957
460.908
454.862
448.82
442.779
436.741
430.705
424.67
418.636
412.602
406.57
400.538
394.506
388.475
382.444
376.413
370.382
364.352
358.321
352.291
346.261
340.231
334.2
328.17
322.14
316.11
310.08
304.05
298.02
291.99
285.96
279.93
273.9
267.87
261.84
255.81
249.78
243.75
237.72
231.69
225.66
219.63
213.6
207.57
201.54
195.51
189.48
183.45
177.421
171.391
165.361
159.331
153.301
147.271
141.241
135.211
129.182
123.152
117.122
111.092
105.063
99.033
93.0034
86.9739
80.9446
74.9154
68.8866
62.8583
56.8306
50.804
44.779
38.7562
32.7367
26.7207
20.7109
14.7017
8.73018
2.75424
613.545
601.448
595.263
587.202
580.391
573.333
566.602
559.937
553.42
546.985
540.634
534.342
528.102
521.901
515.734
509.593
503.473
497.371
491.283
485.206
479.138
473.078
467.023
460.974
454.928
448.885
442.845
436.807
430.771
424.736
418.701
412.668
406.636
400.604
394.572
388.541
382.51
376.479
370.448
364.418
358.387
352.357
346.327
340.296
334.266
328.236
322.206
316.176
310.146
304.116
298.086
292.056
286.026
279.996
273.966
267.936
261.906
255.876
249.846
243.816
237.786
231.756
225.726
219.696
213.666
207.636
201.606
195.576
189.546
183.516
177.486
171.456
165.426
159.397
153.367
147.337
141.307
135.277
129.247
123.218
117.188
111.158
105.128
99.0987
93.0691
87.0396
81.0103
74.9811
68.9523
62.9239
56.8963
50.8697
44.8447
38.8219
32.8023
26.7865
20.7769
14.7684
8.79221
2.80964
612.816
601.552
595.365
587.31
580.476
573.407
566.674
560.007
553.49
547.055
540.703
534.411
528.17
521.97
515.802
509.661
503.541
497.439
491.351
485.274
479.206
473.145
467.091
461.041
454.996
448.953
442.913
436.875
430.838
424.803
418.769
412.736
406.703
400.671
394.639
388.608
382.577
376.546
370.516
364.485
358.455
352.424
346.394
340.364
334.334
328.304
322.273
316.243
310.213
304.183
298.153
292.123
286.093
280.063
274.033
268.003
261.973
255.943
249.913
243.883
237.853
231.823
225.793
219.763
213.733
207.703
201.673
195.643
189.614
183.584
177.554
171.524
165.494
159.464
153.434
147.404
141.375
135.345
129.315
123.285
117.255
111.226
105.196
99.1662
93.1366
87.1071
81.0778
75.0486
69.0198
62.9914
56.9638
50.9372
44.9121
38.8893
32.8697
26.8542
20.8447
14.8372
8.8555
2.86633
612.198
601.629
595.459
587.415
580.557
573.479
566.743
560.075
553.558
547.122
540.77
534.478
528.237
522.036
515.868
509.727
503.607
497.505
491.416
485.339
479.271
473.211
467.156
461.107
455.061
449.018
442.978
436.94
430.904
424.868
418.834
412.801
406.768
400.736
394.705
388.673
382.642
376.612
370.581
364.55
358.52
352.49
346.459
340.429
334.399
328.369
322.339
316.309
310.279
304.249
298.219
292.189
286.158
280.128
274.098
268.068
262.038
256.008
249.978
243.948
237.918
231.888
225.858
219.829
213.799
207.769
201.739
195.709
189.679
183.649
177.619
171.589
165.559
159.529
153.5
147.47
141.44
135.41
129.38
123.35
117.321
111.291
105.261
99.2316
93.202
87.1725
81.1431
75.114
69.0851
63.0568
57.0291
51.0025
44.9774
38.9546
32.935
26.9198
20.9104
14.9041
8.91651
2.92103
611.67
601.684
595.543
587.515
580.633
573.546
566.807
560.138
553.621
547.185
540.833
534.54
528.299
522.098
515.93
509.789
503.669
497.566
491.478
485.401
479.333
473.272
467.218
461.168
455.122
449.08
443.039
437.001
430.965
424.93
418.896
412.862
406.83
400.798
394.766
388.735
382.704
376.673
370.642
364.612
358.581
352.551
346.521
340.49
334.46
328.43
322.4
316.37
310.34
304.31
298.28
292.25
286.22
280.19
274.16
268.13
262.1
256.07
250.04
244.01
237.98
231.95
225.92
219.89
213.86
207.83
201.8
195.77
189.74
183.71
177.68
171.65
165.621
159.591
153.561
147.531
141.501
135.471
129.442
123.412
117.382
111.352
105.323
99.2929
93.2633
87.2338
81.2044
75.1752
69.1464
63.118
57.0903
51.0637
45.0386
39.0158
32.9963
26.9813
20.972
14.9672
8.97351
2.97215
611.218
601.72
595.618
587.607
580.702
573.607
566.866
560.196
553.679
547.243
540.891
534.598
528.356
522.155
515.987
509.845
503.725
497.623
491.534
485.457
479.389
473.329
467.274
461.224
455.179
449.136
443.096
437.058
431.021
424.986
418.952
412.919
406.886
400.854
394.822
388.791
382.76
376.729
370.698
364.668
358.638
352.607
346.577
340.547
334.517
328.486
322.456
316.426
310.396
304.366
298.336
292.306
286.276
280.246
274.216
268.186
262.156
256.126
250.096
244.066
238.036
232.006
225.976
219.946
213.916
207.886
201.856
195.826
189.796
183.767
177.737
171.707
165.677
159.647
153.617
147.587
141.557
135.528
129.498
123.468
117.438
111.408
105.379
99.3491
93.3195
87.29
81.2607
75.2315
69.2027
63.1743
57.1466
51.1199
45.0948
39.0721
33.0525
27.0378
21.0286
15.0254
9.02574
3.01898
610.832
601.742
595.684
587.691
580.765
573.662
566.919
560.248
553.731
547.295
540.942
534.649
528.408
522.207
516.038
509.897
503.777
497.674
491.585
485.508
479.44
473.38
467.325
461.275
455.23
449.187
443.147
437.109
431.072
425.037
419.003
412.97
406.937
400.905
394.873
388.842
382.811
376.78
370.749
364.719
358.688
352.658
346.628
340.598
334.568
328.537
322.507
316.477
310.447
304.417
298.387
292.357
286.327
280.297
274.267
268.237
262.207
256.177
250.147
244.117
238.087
232.057
226.027
219.997
213.967
207.937
201.907
195.877
189.847
183.817
177.788
171.758
165.728
159.698
153.668
147.638
141.608
135.578
129.549
123.519
117.489
111.459
105.43
99.4
93.3704
87.3409
81.3116
75.2824
69.2536
63.2252
57.1975
51.1708
45.1457
39.1229
33.1034
27.089
21.0798
15.0784
9.07289
3.06124
610.505
601.755
595.741
587.766
580.822
573.711
566.965
560.294
553.777
547.341
540.989
534.695
528.454
522.252
516.084
509.942
503.822
497.719
491.631
485.554
479.486
473.425
467.37
461.321
455.275
449.232
443.192
437.154
431.117
425.082
419.048
413.015
406.982
400.95
394.919
388.887
382.856
376.825
370.795
364.764
358.734
352.703
346.673
340.643
334.613
328.583
322.553
316.523
310.492
304.462
298.432
292.402
286.372
280.342
274.312
268.282
262.252
256.222
250.192
244.162
238.132
232.102
226.072
220.042
214.012
207.982
201.953
195.923
189.893
183.863
177.833
171.803
165.773
159.743
153.713
147.683
141.654
135.624
129.594
123.564
117.534
111.505
105.475
99.4454
93.4158
87.3863
81.3569
75.3278
69.2989
63.2705
57.2428
51.2161
45.191
39.1683
33.1487
27.1346
21.1255
15.1258
9.11483
3.09883
610.23
601.76
595.789
587.832
580.871
573.754
567.006
560.334
553.817
547.381
541.029
534.736
528.494
522.292
516.124
509.982
503.862
497.759
491.671
485.593
479.525
473.465
467.41
461.361
455.315
449.272
443.232
437.194
431.157
425.122
419.088
413.055
407.022
400.99
394.958
388.927
382.896
376.865
370.834
364.804
358.774
352.743
346.713
340.683
334.653
328.622
322.592
316.562
310.532
304.502
298.472
292.442
286.412
280.382
274.352
268.322
262.292
256.262
250.232
244.202
238.172
232.142
226.112
220.082
214.052
208.022
201.992
195.962
189.932
183.902
177.873
171.843
165.813
159.783
153.753
147.723
141.693
135.664
129.634
123.604
117.574
111.544
105.515
99.4851
93.4555
87.426
81.3966
75.3675
69.3386
63.3102
57.2825
51.2559
45.2307
39.208
33.1884
27.1746
21.1655
15.1675
9.15153
3.13173
610.002
601.76
595.829
587.889
580.914
573.791
567.04
560.368
553.852
547.416
541.063
534.77
528.528
522.327
516.158
510.017
503.896
497.794
491.705
485.628
479.56
473.499
467.444
461.395
455.349
449.306
443.266
437.228
431.191
425.156
419.122
413.089
407.056
401.024
394.992
388.961
382.93
376.899
370.869
364.838
358.808
352.777
346.747
340.717
334.687
328.657
322.626
316.596
310.566
304.536
298.506
292.476
286.446
280.416
274.386
268.356
262.326
256.296
250.266
244.236
238.206
232.176
226.146
220.116
214.086
208.056
202.026
195.996
189.966
183.937
177.907
171.877
165.847
159.817
153.787
147.757
141.727
135.698
129.668
123.638
117.608
111.579
105.549
99.5192
93.4896
87.4601
81.4307
75.4015
69.3727
63.3443
57.3166
51.2899
45.2647
39.242
33.2224
27.2089
21.1999
15.2034
9.18298
3.15991
609.818
601.757
595.862
587.937
580.949
573.822
567.069
560.397
553.881
547.445
541.092
534.799
528.557
522.355
516.187
510.045
503.925
497.822
491.733
485.656
479.588
473.527
467.473
461.423
455.377
449.334
443.294
437.256
431.22
425.184
419.15
413.117
407.084
401.052
395.021
388.989
382.958
376.928
370.897
364.866
358.836
352.806
346.775
340.745
334.715
328.685
322.655
316.625
310.595
304.565
298.535
292.505
286.475
280.445
274.414
268.384
262.354
256.324
250.294
244.264
238.234
232.204
226.175
220.145
214.115
208.085
202.055
196.025
189.995
183.965
177.935
171.905
165.875
159.845
153.816
147.786
141.756
135.726
129.696
123.666
117.637
111.607
105.577
99.5476
93.518
87.4885
81.4591
75.4299
69.4011
63.3727
57.345
51.3183
45.2931
39.2704
33.2508
27.2376
21.2286
15.2334
9.20918
3.18339
609.674
601.754
595.888
587.975
580.977
573.847
567.092
560.42
553.903
547.468
541.115
534.822
528.58
522.378
516.21
510.068
503.948
497.845
491.756
485.679
479.611
473.55
467.496
461.446
455.4
449.357
443.317
437.279
431.242
425.207
419.173
413.14
407.107
401.075
395.043
389.012
382.981
376.95
370.92
364.889
358.859
352.828
346.798
340.768
334.738
328.708
322.678
316.647
310.617
304.587
298.557
292.527
286.497
280.467
274.437
268.407
262.377
256.347
250.317
244.287
238.257
232.227
226.197
220.167
214.137
208.107
202.077
196.048
190.018
183.988
177.958
171.928
165.898
159.868
153.838
147.808
141.779
135.749
129.719
123.689
117.659
111.63
105.6
99.5703
93.5407
87.5112
81.4818
75.4527
69.4238
63.3954
57.3677
51.341
45.3158
39.2931
33.2735
27.2605
21.2515
15.2575
9.23013
3.20217
609.568
601.75
595.907
588.004
580.999
573.865
567.109
560.437
553.921
547.485
541.132
534.839
528.597
522.396
516.227
510.085
503.965
497.862
491.773
485.696
479.628
473.567
467.513
461.463
455.417
449.374
443.334
437.296
431.259
425.224
419.19
413.157
407.124
401.092
395.061
389.029
382.998
376.967
370.937
364.906
358.876
352.845
346.815
340.785
334.755
328.725
322.695
316.665
310.634
304.604
298.574
292.544
286.514
280.484
274.454
268.424
262.394
256.364
250.334
244.304
238.274
232.244
226.214
220.184
214.154
208.124
202.094
196.065
190.035
184.005
177.975
171.945
165.915
159.885
153.855
147.825
141.796
135.766
129.736
123.706
117.676
111.647
105.617
99.5873
93.5577
87.5282
81.4989
75.4697
69.4409
63.4125
57.3847
51.3581
45.3329
39.3102
33.2906
27.2777
21.2687
15.2756
9.24584
3.21625
609.499
601.747
595.92
588.023
581.013
573.878
567.121
560.448
553.932
547.496
541.144
534.851
528.609
522.407
516.239
510.097
503.976
497.873
491.785
485.707
479.639
473.579
467.524
461.474
455.428
449.386
443.345
437.307
431.271
425.236
419.202
413.168
407.136
401.104
395.072
389.041
383.01
376.979
370.948
364.918
358.887
352.857
346.827
340.796
334.766
328.736
322.706
316.676
310.646
304.616
298.586
292.556
286.526
280.496
274.466
268.436
262.406
256.376
250.346
244.316
238.286
232.256
226.226
220.196
214.166
208.136
202.106
196.076
190.046
184.016
177.986
171.956
165.926
159.897
153.867
147.837
141.807
135.777
129.747
123.718
117.688
111.658
105.628
99.5987
93.5691
87.5396
81.5102
75.4811
69.4522
63.4238
57.3961
51.3694
45.3442
39.3215
33.3019
27.2891
21.2802
15.2877
9.25632
3.22564
609.464
601.745
595.926
588.032
581.02
573.884
567.127
560.454
553.938
547.502
541.15
534.856
528.614
522.413
516.244
510.102
503.982
497.879
491.79
485.713
479.645
473.584
467.53
461.48
455.434
449.391
443.351
437.313
431.277
425.241
419.207
413.174
407.141
401.109
395.078
389.046
383.015
376.984
370.954
364.923
358.893
352.862
346.832
340.802
334.772
328.742
322.712
316.682
310.652
304.621
298.591
292.561
286.531
280.501
274.471
268.441
262.411
256.381
250.351
244.321
238.291
232.261
226.231
220.201
214.171
208.141
202.112
196.082
190.052
184.022
177.992
171.962
165.932
159.902
153.872
147.843
141.813
135.783
129.753
123.723
117.694
111.664
105.634
99.6044
93.5748
87.5453
81.5159
75.4868
69.4579
63.4295
57.4018
51.3751
45.3499
39.3272
33.3076
27.2949
21.2859
15.2937
9.26155
3.23033
609.464
601.745
595.926
588.032
581.02
573.884
567.127
560.454
553.938
547.502
541.15
534.856
528.614
522.413
516.244
510.102
503.982
497.879
491.79
485.713
479.645
473.584
467.53
461.48
455.434
449.391
443.351
437.313
431.277
425.241
419.207
413.174
407.141
401.109
395.078
389.046
383.015
376.984
370.954
364.923
358.893
352.862
346.832
340.802
334.772
328.742
322.712
316.682
310.652
304.622
298.591
292.561
286.531
280.501
274.471
268.441
262.411
256.381
250.351
244.321
238.291
232.261
226.231
220.201
214.171
208.141
202.112
196.082
190.052
184.022
177.992
171.962
165.932
159.902
153.872
147.843
141.813
135.783
129.753
123.723
117.694
111.664
105.634
99.6044
93.5748
87.5453
81.5159
75.4868
69.4579
63.4295
57.4018
51.3751
45.3499
39.3272
33.3076
27.2949
21.2859
15.2938
9.26156
3.23033
609.499
601.747
595.919
588.023
581.013
573.878
567.121
560.448
553.932
547.496
541.144
534.851
528.609
522.407
516.239
510.097
503.976
497.873
491.785
485.707
479.639
473.579
467.524
461.474
455.428
449.386
443.345
437.307
431.271
425.236
419.202
413.168
407.136
401.104
395.072
389.041
383.01
376.979
370.948
364.918
358.887
352.857
346.827
340.796
334.766
328.736
322.706
316.676
310.646
304.616
298.586
292.556
286.526
280.496
274.466
268.436
262.406
256.376
250.346
244.316
238.286
232.256
226.226
220.196
214.166
208.136
202.106
196.076
190.046
184.016
177.986
171.956
165.926
159.897
153.867
147.837
141.807
135.777
129.747
123.718
117.688
111.658
105.628
99.5987
93.5691
87.5396
81.5102
75.4811
69.4522
63.4238
57.3961
51.3694
45.3442
39.3216
33.3019
27.2891
21.2802
15.2877
9.25632
3.22564
609.568
601.75
595.907
588.004
580.999
573.865
567.109
560.437
553.921
547.485
541.132
534.839
528.597
522.396
516.227
510.085
503.965
497.862
491.773
485.696
479.628
473.567
467.513
461.463
455.417
449.374
443.334
437.296
431.259
425.224
419.19
413.157
407.124
401.092
395.061
389.029
382.998
376.967
370.937
364.906
358.876
352.845
346.815
340.785
334.755
328.725
322.695
316.665
310.635
304.604
298.574
292.544
286.514
280.484
274.454
268.424
262.394
256.364
250.334
244.304
238.274
232.244
226.214
220.184
214.154
208.124
202.094
196.065
190.035
184.005
177.975
171.945
165.915
159.885
153.855
147.825
141.796
135.766
129.736
123.706
117.676
111.647
105.617
99.5874
93.5578
87.5283
81.4989
75.4697
69.4409
63.4125
57.3847
51.3581
45.3329
39.3102
33.2906
27.2777
21.2687
15.2756
9.24585
3.21625
609.674
601.754
595.888
587.975
580.977
573.847
567.092
560.42
553.904
547.468
541.115
534.822
528.58
522.378
516.21
510.068
503.948
497.845
491.756
485.679
479.611
473.55
467.496
461.446
455.4
449.357
443.317
437.279
431.242
425.207
419.173
413.14
407.107
401.075
395.043
389.012
382.981
376.95
370.92
364.889
358.859
352.828
346.798
340.768
334.738
328.708
322.678
316.648
310.617
304.587
298.557
292.527
286.497
280.467
274.437
268.407
262.377
256.347
250.317
244.287
238.257
232.227
226.197
220.167
214.137
208.107
202.077
196.048
190.018
183.988
177.958
171.928
165.898
159.868
153.838
147.808
141.779
135.749
129.719
123.689
117.659
111.63
105.6
99.5703
93.5407
87.5112
81.4818
75.4527
69.4238
63.3954
57.3677
51.341
45.3159
39.2932
33.2736
27.2605
21.2515
15.2575
9.23015
3.20217
609.818
601.757
595.862
587.937
580.949
573.822
567.069
560.397
553.881
547.445
541.092
534.799
528.557
522.356
516.187
510.045
503.925
497.822
491.733
485.656
479.588
473.527
467.473
461.423
455.377
449.335
443.294
437.256
431.22
425.185
419.15
413.117
407.085
401.052
395.021
388.989
382.958
376.928
370.897
364.866
358.836
352.806
346.775
340.745
334.715
328.685
322.655
316.625
310.595
304.565
298.535
292.505
286.475
280.445
274.415
268.385
262.355
256.325
250.295
244.265
238.235
232.205
226.175
220.145
214.115
208.085
202.055
196.025
189.995
183.965
177.935
171.905
165.875
159.845
153.816
147.786
141.756
135.726
129.696
123.666
117.637
111.607
105.577
99.5476
93.518
87.4885
81.4591
75.43
69.4011
63.3727
57.345
51.3183
45.2932
39.2705
33.2509
27.2376
21.2286
15.2335
9.20919
3.1834
610.002
601.76
595.829
587.889
580.914
573.791
567.04
560.368
553.852
547.416
541.063
534.77
528.528
522.327
516.158
510.017
503.896
497.794
491.705
485.628
479.56
473.499
467.444
461.395
455.349
449.306
443.266
437.228
431.191
425.156
419.122
413.089
407.056
401.024
394.992
388.961
382.93
376.899
370.869
364.838
358.808
352.777
346.747
340.717
334.687
328.657
322.627
316.596
310.566
304.536
298.506
292.476
286.446
280.416
274.386
268.356
262.326
256.296
250.266
244.236
238.206
232.176
226.146
220.116
214.086
208.056
202.026
195.996
189.966
183.937
177.907
171.877
165.847
159.817
153.787
147.757
141.727
135.698
129.668
123.638
117.608
111.579
105.549
99.5192
93.4896
87.4601
81.4307
75.4016
69.3727
63.3443
57.3166
51.29
45.2648
39.2421
33.2225
27.209
21.2
15.2034
9.183
3.15992
610.23
601.759
595.789
587.832
580.871
573.754
567.006
560.334
553.817
547.381
541.029
534.736
528.494
522.293
516.124
509.982
503.862
497.759
491.671
485.594
479.526
473.465
467.41
461.361
455.315
449.272
443.232
437.194
431.157
425.122
419.088
413.055
407.022
400.99
394.958
388.927
382.896
376.865
370.834
364.804
358.774
352.743
346.713
340.683
334.653
328.623
322.592
316.562
310.532
304.502
298.472
292.442
286.412
280.382
274.352
268.322
262.292
256.262
250.232
244.202
238.172
232.142
226.112
220.082
214.052
208.022
201.992
195.962
189.932
183.902
177.873
171.843
165.813
159.783
153.753
147.723
141.693
135.664
129.634
123.604
117.574
111.545
105.515
99.4851
93.4555
87.426
81.3967
75.3675
69.3387
63.3103
57.2826
51.2559
45.2307
39.208
33.1884
27.1747
21.1656
15.1675
9.15155
3.13173
610.505
601.754
595.741
587.766
580.822
573.711
566.965
560.294
553.777
547.341
540.989
534.695
528.454
522.252
516.084
509.942
503.822
497.72
491.631
485.554
479.486
473.425
467.371
461.321
455.275
449.232
443.192
437.154
431.118
425.082
419.048
413.015
406.982
400.95
394.919
388.887
382.856
376.825
370.795
364.764
358.734
352.704
346.673
340.643
334.613
328.583
322.553
316.523
310.493
304.463
298.432
292.402
286.372
280.342
274.312
268.282
262.252
256.222
250.192
244.162
238.132
232.102
226.072
220.042
214.012
207.982
201.953
195.923
189.893
183.863
177.833
171.803
165.773
159.743
153.713
147.684
141.654
135.624
129.594
123.564
117.535
111.505
105.475
99.4454
93.4158
87.3863
81.357
75.3278
69.2989
63.2706
57.2429
51.2162
45.191
39.1683
33.1487
27.1347
21.1256
15.1258
9.11485
3.09884
610.832
601.742
595.684
587.691
580.765
573.662
566.919
560.248
553.731
547.295
540.942
534.649
528.408
522.207
516.038
509.897
503.777
497.674
491.585
485.508
479.44
473.38
467.325
461.275
455.23
449.187
443.147
437.109
431.072
425.037
419.003
412.97
406.937
400.905
394.873
388.842
382.811
376.78
370.749
364.719
358.688
352.658
346.628
340.598
334.568
328.537
322.507
316.477
310.447
304.417
298.387
292.357
286.327
280.297
274.267
268.237
262.207
256.177
250.147
244.117
238.087
232.057
226.027
219.997
213.967
207.937
201.907
195.877
189.847
183.817
177.788
171.758
165.728
159.698
153.668
147.638
141.608
135.579
129.549
123.519
117.489
111.459
105.43
99.4001
93.3705
87.341
81.3116
75.2825
69.2536
63.2252
57.1975
51.1709
45.1457
39.123
33.1034
27.0891
21.0799
15.0784
9.07291
3.06125
611.218
601.72
595.618
587.607
580.702
573.607
566.866
560.196
553.679
547.243
540.891
534.598
528.356
522.155
515.987
509.845
503.725
497.623
491.534
485.457
479.389
473.329
467.274
461.225
455.179
449.136
443.096
437.058
431.021
424.986
418.952
412.919
406.886
400.854
394.822
388.791
382.76
376.729
370.699
364.668
358.638
352.607
346.577
340.547
334.517
328.487
322.456
316.426
310.396
304.366
298.336
292.306
286.276
280.246
274.216
268.186
262.156
256.126
250.096
244.066
238.036
232.006
225.976
219.946
213.916
207.886
201.856
195.826
189.796
183.767
177.737
171.707
165.677
159.647
153.617
147.587
141.557
135.528
129.498
123.468
117.438
111.409
105.379
99.3492
93.3196
87.2901
81.2607
75.2316
69.2027
63.1744
57.1467
51.12
45.0949
39.0721
33.0526
27.0379
21.0286
15.0255
9.02577
3.01898
611.67
601.684
595.543
587.515
580.633
573.545
566.807
560.138
553.621
547.185
540.833
534.541
528.299
522.098
515.93
509.789
503.669
497.566
491.478
485.401
479.333
473.272
467.218
461.168
455.122
449.08
443.04
437.002
430.965
424.93
418.896
412.862
406.83
400.798
394.766
388.735
382.704
376.673
370.642
364.612
358.581
352.551
346.521
340.491
334.46
328.43
322.4
316.37
310.34
304.31
298.28
292.25
286.22
280.19
274.16
268.13
262.1
256.07
250.04
244.01
237.98
231.95
225.92
219.89
213.86
207.83
201.8
195.77
189.74
183.71
177.68
171.65
165.621
159.591
153.561
147.531
141.501
135.471
129.442
123.412
117.382
111.352
105.323
99.2929
93.2633
87.2338
81.2045
75.1753
69.1465
63.1181
57.0904
51.0638
45.0387
39.0159
32.9963
26.9814
20.972
14.9672
8.97354
2.97215
612.198
601.629
595.458
587.415
580.557
573.479
566.743
560.075
553.558
547.123
540.771
534.478
528.237
522.036
515.868
509.727
503.607
497.505
491.416
485.339
479.271
473.211
467.157
461.107
455.061
449.018
442.978
436.94
430.904
424.869
418.834
412.801
406.769
400.736
394.705
388.674
382.642
376.612
370.581
364.55
358.52
352.49
346.46
340.429
334.399
328.369
322.339
316.309
310.279
304.249
298.219
292.189
286.159
280.129
274.099
268.069
262.039
256.009
249.979
243.949
237.919
231.889
225.859
219.829
213.799
207.769
201.739
195.709
189.679
183.649
177.619
171.589
165.559
159.529
153.5
147.47
141.44
135.41
129.38
123.351
117.321
111.291
105.261
99.2317
93.2021
87.1726
81.1432
75.1141
69.0852
63.0569
57.0292
51.0025
44.9774
38.9547
32.9351
26.9198
20.9104
14.9041
8.91653
2.92104
612.816
601.552
595.365
587.31
580.476
573.407
566.674
560.007
553.49
547.055
540.703
534.411
528.171
521.97
515.802
509.661
503.541
497.439
491.351
485.274
479.206
473.145
467.091
461.041
454.996
448.953
442.913
436.875
430.838
424.803
418.769
412.736
406.703
400.671
394.639
388.608
382.577
376.546
370.516
364.485
358.455
352.424
346.394
340.364
334.334
328.304
322.274
316.243
310.213
304.183
298.153
292.123
286.093
280.063
274.033
268.003
261.973
255.943
249.913
243.883
237.853
231.823
225.793
219.763
213.733
207.703
201.673
195.643
189.614
183.584
177.554
171.524
165.494
159.464
153.434
147.404
141.375
135.345
129.315
123.285
117.255
111.226
105.196
99.1663
93.1367
87.1072
81.0779
75.0487
69.0199
62.9915
56.9639
50.9372
44.9122
38.8894
32.8698
26.8542
20.8447
14.8372
8.85553
2.86634
613.545
601.448
595.263
587.202
580.391
573.333
566.602
559.937
553.42
546.985
540.634
534.342
528.102
521.901
515.734
509.593
503.473
497.371
491.283
485.206
479.138
473.078
467.023
460.974
454.928
448.886
442.845
436.807
430.771
424.736
418.702
412.668
406.636
400.604
394.572
388.541
382.51
376.479
370.448
364.418
358.387
352.357
346.327
340.296
334.266
328.236
322.206
316.176
310.146
304.116
298.086
292.056
286.026
279.996
273.966
267.936
261.906
255.876
249.846
243.816
237.786
231.756
225.726
219.696
213.666
207.636
201.606
195.576
189.546
183.516
177.486
171.456
165.426
159.397
153.367
147.337
141.307
135.277
129.247
123.218
117.188
111.158
105.128
99.0988
93.0692
87.0397
81.0104
74.9812
68.9524
62.924
56.8964
50.8698
44.8447
38.822
32.8024
26.7866
20.7769
14.7684
8.79224
2.80964
614.415
601.314
595.157
587.096
580.307
573.259
566.531
559.867
553.351
546.917
540.566
534.274
528.034
521.834
515.667
509.526
503.407
497.305
491.217
485.14
479.072
473.012
466.958
460.908
454.862
448.82
442.78
436.742
430.705
424.67
418.636
412.603
406.57
400.538
394.506
388.475
382.444
376.413
370.382
364.352
358.322
352.291
346.261
340.231
334.201
328.17
322.14
316.11
310.08
304.05
298.02
291.99
285.96
279.93
273.9
267.87
261.84
255.81
249.78
243.75
237.72
231.69
225.66
219.63
213.6
207.57
201.54
195.51
189.48
183.45
177.421
171.391
165.361
159.331
153.301
147.271
141.241
135.212
129.182
123.152
117.122
111.092
105.063
99.0331
93.0035
86.974
80.9447
74.9155
68.8867
62.8583
56.8307
50.8041
44.7791
38.7563
32.7368
26.7208
20.711
14.7017
8.7302
2.75424
615.462
601.15
595.055
587.002
580.232
573.195
566.469
559.807
553.291
546.858
540.507
534.217
527.977
521.777
515.61
509.47
503.351
497.249
491.161
485.084
479.016
472.956
466.902
460.852
454.807
448.764
442.724
436.686
430.65
424.614
418.58
412.547
406.514
400.482
394.451
388.419
382.388
376.358
370.327
364.296
358.266
352.236
346.205
340.175
334.145
328.115
322.085
316.055
310.025
303.995
297.965
291.934
285.904
279.874
273.844
267.814
261.784
255.754
249.724
243.694
237.664
231.634
225.605
219.575
213.545
207.515
201.485
195.455
189.425
183.395
177.365
171.335
165.305
159.275
153.245
147.216
141.186
135.156
129.126
123.096
117.067
111.037
105.007
98.9776
92.948
86.9185
80.8891
74.86
68.8312
62.8028
56.7752
50.7486
44.7236
38.7009
32.6813
26.6651
20.6554
14.6456
8.67743
2.70765
616.758
600.978
594.98
586.943
580.187
573.162
566.437
559.778
553.263
546.83
540.481
534.19
527.951
521.752
515.585
509.445
503.326
497.224
491.136
485.06
478.992
472.932
466.878
460.828
454.783
448.74
442.7
436.662
430.625
424.59
418.556
412.523
406.49
400.458
394.427
388.395
382.364
376.334
370.303
364.272
358.242
352.212
346.181
340.151
334.121
328.091
322.061
316.031
310.001
303.971
297.94
291.91
285.88
279.85
273.82
267.79
261.76
255.73
249.7
243.67
237.64
231.61
225.58
219.551
213.521
207.491
201.461
195.431
189.401
183.371
177.341
171.311
165.281
159.251
153.221
147.192
141.162
135.132
129.102
123.072
117.043
111.013
104.983
98.9535
92.9239
86.8944
80.8651
74.836
68.8072
62.7788
56.7512
50.7247
44.6997
38.6769