/*--------------------------------*- C++ -*----------------------------------*\
| =========                 |                                                 |
| \\      /  F ield         | OpenFOAM: The Open Source CFD Toolbox           |
|  \\    /   O peration     | Version:  v1906                                 |
|   \\  /    A nd           | Web:      www.OpenFOAM.com                      |
|    \\/     M anipulation  |                                                 |
\*---------------------------------------------------------------------------*/
FoamFile
{
    version     2.0;
    format      ascii;
    class       volScalarField;
    location    "2";
    object      p;
}
// * * * * * * * * * * * * * * * * * * * * * * * * * * * * * * * * * * * * * //

dimensions      [0 2 -2 0 0 0 0];


internalField   nonuniform List<scalar> 
4000
(
427.113
413.877
409.821
404.545
399.86
395.071
390.466
385.919
381.461
377.057
372.703
368.386
364.101
359.841
355.602
351.378
347.168
342.968
338.777
334.593
330.415
326.241
322.07
317.902
313.737
309.574
305.412
301.251
297.092
292.933
288.774
284.617
280.459
276.302
272.145
267.989
263.832
259.676
255.52
251.364
247.208
243.051
238.895
234.739
230.583
226.428
222.272
218.116
213.96
209.804
205.648
201.492
197.336
193.18
189.025
184.869
180.713
176.557
172.401
168.245
164.089
159.933
155.777
151.622
147.466
143.31
139.154
134.998
130.842
126.686
122.531
118.375
114.219
110.063
105.907
101.751
97.5954
93.4395
89.2836
85.1278
80.9719
76.8161
72.6603
68.5045
64.3488
60.1932
56.0377
51.8823
47.7272
43.5725
39.4184
35.265
31.113
26.9628
22.8152
18.6708
14.5309
10.3927
6.27113
2.14861
424.666
413.787
409.671
404.358
399.671
394.879
390.275
385.727
381.268
376.863
372.509
368.192
363.907
359.647
355.407
351.183
346.973
342.773
338.582
334.398
330.219
326.045
321.875
317.707
313.542
309.379
305.217
301.056
296.896
292.737
288.579
284.421
280.264
276.107
271.95
267.794
263.637
259.481
255.325
251.168
247.012
242.856
238.7
234.544
230.388
226.232
222.076
217.92
213.765
209.609
205.453
201.297
197.141
192.985
188.829
184.673
180.517
176.362
172.206
168.05
163.894
159.738
155.582
151.426
147.27
143.115
138.959
134.803
130.647
126.491
122.335
118.179
114.024
109.868
105.712
101.556
97.4001
93.2442
89.0883
84.9325
80.7766
76.6208
72.465
68.3092
64.1535
59.9979
55.8424
51.687
47.5319
43.3772
39.2231
35.0697
30.9177
26.7674
22.6198
18.4755
14.3357
10.1981
6.07776
1.96698
423.384
413.783
409.623
404.278
399.592
394.796
390.192
385.643
381.184
376.778
372.424
368.107
363.821
359.561
355.321
351.097
346.887
342.687
338.496
334.311
330.133
325.959
321.788
317.62
313.455
309.292
305.13
300.969
296.809
292.651
288.492
284.334
280.177
276.02
271.863
267.707
263.55
259.394
255.238
251.081
246.925
242.769
238.613
234.457
230.301
226.145
221.989
217.834
213.678
209.522
205.366
201.21
197.054
192.898
188.742
184.586
180.431
176.275
172.119
167.963
163.807
159.651
155.495
151.339
147.184
143.028
138.872
134.716
130.56
126.404
122.248
118.092
113.937
109.781
105.625
101.469
97.3131
93.1573
89.0014
84.8455
80.6897
76.5339
72.3781
68.2223
64.0666
59.911
55.7555
51.6001
47.445
43.2903
39.1361
34.9828
30.8307
26.6804
22.5328
18.3885
14.2488
10.1113
5.99163
1.88586
422.865
413.875
409.66
404.296
399.609
394.808
390.204
385.654
381.195
376.789
372.434
368.117
363.831
359.57
355.33
351.106
346.895
342.696
338.504
334.32
330.141
325.967
321.797
317.629
313.464
309.3
305.138
300.978
296.818
292.659
288.501
284.343
280.185
276.028
271.872
267.715
263.559
259.402
255.246
251.09
246.934
242.778
238.622
234.466
230.31
226.154
221.998
217.842
213.686
209.53
205.374
201.218
197.063
192.907
188.751
184.595
180.439
176.283
172.127
167.971
163.815
159.66
155.504
151.348
147.192
143.036
138.88
134.724
130.568
126.413
122.257
118.101
113.945
109.789
105.633
101.477
97.3215
93.1657
89.0098
84.8539
80.6981
76.5423
72.3865
68.2307
64.075
59.9194
55.7639
51.6085
47.4534
43.2987
39.1445
34.9912
30.8391
26.6888
22.5411
18.3968
14.2573
10.1201
5.99923
1.89067
422.527
413.986
409.725
404.342
399.652
394.848
390.244
385.693
381.233
376.827
372.472
368.154
363.868
359.607
355.367
351.143
346.932
342.732
338.541
334.357
330.178
326.004
321.833
317.665
313.5
309.337
305.175
301.014
296.854
292.695
288.537
284.379
280.222
276.065
271.908
267.751
263.595
259.439
255.282
251.126
246.97
242.814
238.658
234.502
230.346
226.19
222.034
217.878
213.722
209.567
205.411
201.255
197.099
192.943
188.787
184.631
180.475
176.319
172.164
168.008
163.852
159.696
155.54
151.384
147.228
143.072
138.917
134.761
130.605
126.449
122.293
118.137
113.981
109.826
105.67
101.514
97.3579
93.2021
89.0462
84.8903
80.7345
76.5787
72.4229
68.2671
64.1114
59.9558
55.8003
51.6449
47.4898
43.3351
39.1809
35.0275
30.8754
26.7251
22.5775
18.4332
14.2937
10.1563
6.0346
1.9217
422.222
414.081
409.791
404.392
399.697
394.889
390.285
385.733
381.273
376.867
372.511
368.193
363.907
359.646
355.406
351.182
346.971
342.771
338.579
334.395
330.216
326.042
321.871
317.704
313.538
309.375
305.213
301.052
296.893
292.734
288.575
284.418
280.26
276.103
271.946
267.79
263.633
259.477
255.321
251.165
247.008
242.852
238.696
234.54
230.384
226.229
222.073
217.917
213.761
209.605
205.449
201.293
197.137
192.981
188.826
184.67
180.514
176.358
172.202
168.046
163.89
159.734
155.578
151.423
147.267
143.111
138.955
134.799
130.643
126.487
122.331
118.176
114.02
109.864
105.708
101.552
97.3963
93.2404
89.0846
84.9287
80.7729
76.617
72.4612
68.3055
64.1498
59.9941
55.8386
51.6833
47.5282
43.3734
39.2192
35.0659
30.9137
26.7634
22.6158
18.4715
14.332
10.1951
6.07232
1.95496
421.95
414.159
409.855
404.44
399.74
394.927
390.324
385.771
381.312
376.905
372.549
368.231
363.945
359.683
355.443
351.219
347.008
342.808
338.616
334.432
330.253
326.079
321.908
317.74
313.575
309.412
305.25
301.089
296.929
292.77
288.612
284.454
280.297
276.14
271.983
267.826
263.67
259.514
255.357
251.201
247.045
242.889
238.733
234.577
230.421
226.265
222.109
217.953
213.797
209.642
205.486
201.33
197.174
193.018
188.862
184.706
180.55
176.394
172.239
168.083
163.927
159.771
155.615
151.459
147.303
143.147
138.992
134.836
130.68
126.524
122.368
118.212
114.056
109.901
105.745
101.589
97.433
93.2771
89.1212
84.9654
80.8095
76.6537
72.4979
68.3421
64.1864
60.0308
55.8753
51.7199
47.5648
43.4101
39.2559
35.1025
30.9504
26.8
22.6524
18.5081
14.3688
10.2324
6.10816
1.98638
421.715
414.222
409.914
404.485
399.78
394.963
390.36
385.807
381.348
376.94
372.585
368.266
363.98
359.719
355.478
351.254
347.043
342.843
338.651
334.467
330.288
326.114
321.943
317.775
313.61
309.446
305.284
301.124
296.964
292.805
288.647
284.489
280.332
276.175
272.018
267.861
263.705
259.548
255.392
251.236
247.08
242.924
238.768
234.612
230.456
226.3
222.144
217.988
213.832
209.676
205.52
201.364
197.209
193.053
188.897
184.741
180.585
176.429
172.273
168.117
163.962
159.806
155.65
151.494
147.338
143.182
139.026
134.87
130.715
126.559
122.403
118.247
114.091
109.935
105.779
101.624
97.4676
93.3118
89.1559
85
80.8442
76.6884
72.5326
68.3768
64.2211
60.0655
55.9099
51.7546
47.5995
43.4447
39.2905
35.1371
30.985
26.8347
22.687
18.5428
14.4036
10.2677
6.14193
2.01578
421.509
414.274
409.969
404.529
399.816
394.997
390.394
385.841
381.381
376.973
372.618
368.299
364.013
359.751
355.511
351.286
347.075
342.875
338.684
334.499
330.32
326.146
321.975
317.808
313.642
309.479
305.317
301.156
296.996
292.837
288.679
284.521
280.364
276.207
272.05
267.893
263.737
259.581
255.424
251.268
247.112
242.956
238.8
234.644
230.488
226.332
222.176
218.02
213.864
209.709
205.553
201.397
197.241
193.085
188.929
184.773
180.617
176.461
172.306
168.15
163.994
159.838
155.682
151.526
147.37
143.214
139.059
134.903
130.747
126.591
122.435
118.279
114.123
109.968
105.812
101.656
97.4999
93.3441
89.1882
85.0323
80.8765
76.7207
72.5649
68.4091
64.2534
60.0978
55.9422
51.7869
47.6318
43.477
39.3228
35.1694
31.0173
26.8669
22.7192
18.5751
14.4359
10.3008
6.17339
2.04303
421.329
414.315
410.019
404.569
399.85
395.027
390.425
385.871
381.412
377.004
372.648
368.329
364.043
359.781
355.541
351.316
347.105
342.905
338.713
334.529
330.35
326.176
322.005
317.837
313.672
309.508
305.346
301.186
297.026
292.867
288.709
284.551
280.394
276.236
272.08
267.923
263.767
259.61
255.454
251.298
247.142
242.986
238.83
234.674
230.518
226.362
222.206
218.05
213.894
209.738
205.582
201.426
197.271
193.115
188.959
184.803
180.647
176.491
172.335
168.179
164.023
159.868
155.712
151.556
147.4
143.244
139.088
134.932
130.777
126.621
122.465
118.309
114.153
109.997
105.841
101.685
97.5296
93.3737
89.2179
85.062
80.9062
76.7503
72.5945
68.4388
64.2831
60.1274
55.9719
51.8165
47.6614
43.5067
39.3524
35.1991
31.0469
26.8966
22.7488
18.6048
14.4657
10.3313
6.20233
2.06797
421.173
414.349
410.064
404.606
399.881
395.055
390.453
385.899
381.439
377.031
372.675
368.357
364.07
359.809
355.568
351.343
347.132
342.932
338.74
334.556
330.377
326.203
322.032
317.864
313.699
309.535
305.373
301.213
297.053
292.894
288.736
284.578
280.421
276.263
272.107
267.95
263.794
259.637
255.481
251.325
247.169
243.013
238.857
234.701
230.545
226.389
222.233
218.077
213.921
209.765
205.609
201.453
197.298
193.142
188.986
184.83
180.674
176.518
172.362
168.206
164.05
159.895
155.739
151.583
147.427
143.271
139.115
134.959
130.803
126.648
122.492
118.336
114.18
110.024
105.868
101.712
97.5566
93.4007
89.2448
85.089
80.9331
76.7773
72.6215
68.4658
64.31
60.1544
55.9989
51.8435
47.6884
43.5336
39.3794
35.226
31.0739
26.9235
22.7758
18.6318
14.4927
10.3591
6.22868
2.09056
421.037
414.375
410.104
404.64
399.908
395.08
390.478
385.924
381.464
377.056
372.7
368.381
364.095
359.833
355.592
351.368
347.157
342.956
338.765
334.58
330.401
326.227
322.056
317.889
313.723
309.56
305.398
301.237
297.077
292.918
288.76
284.602
280.445
276.288
272.131
267.974
263.818
259.662
255.505
251.349
247.193
243.037
238.881
234.725
230.569
226.413
222.257
218.101
213.945
209.789
205.634
201.478
197.322
193.166
189.01
184.854
180.698
176.542
172.386
168.231
164.075
159.919
155.763
151.607
147.451
143.295
139.139
134.984
130.828
126.672
122.516
118.36
114.204
110.048
105.893
101.737
97.5809
93.425
89.2691
85.1133
80.9574
76.8016
72.6458
68.49
64.3343
60.1787
56.0232
51.8678
47.7127
43.5579
39.4037
35.2503
31.0981
26.9478
22.8
18.6562
14.5171
10.3843
6.25241
2.11084
420.919
414.396
410.139
404.67
399.932
395.101
390.5
385.946
381.486
377.078
372.722
368.403
364.117
359.855
355.614
351.389
347.178
342.978
338.786
334.602
330.423
326.249
322.078
317.91
313.745
309.581
305.419
301.259
297.099
292.94
288.782
284.624
280.466
276.309
272.153
267.996
263.839
259.683
255.527
251.371
247.215
243.059
238.903
234.747
230.591
226.435
222.279
218.123
213.967
209.811
205.655
201.499
197.343
193.188
189.032
184.876
180.72
176.564
172.408
168.252
164.096
159.94
155.785
151.629
147.473
143.317
139.161
135.005
130.849
126.693
122.538
118.382
114.226
110.07
105.914
101.758
97.6024
93.4466
89.2907
85.1349
80.979
76.8232
72.6674
68.5116
64.3559
60.2003
56.0447
51.8894
47.7342
43.5795
39.4253
35.2719
31.1197
26.9694
22.8216
18.6778
14.5387
10.4067
6.27353
2.12882
420.82
414.413
410.17
404.697
399.953
395.121
390.519
385.965
381.506
377.097
372.741
368.422
364.136
359.874
355.633
351.408
347.197
342.997
338.805
334.621
330.442
326.268
322.097
317.929
313.764
309.6
305.438
301.277
297.118
292.959
288.8
284.643
280.485
276.328
272.171
268.015
263.858
259.702
255.546
251.39
247.234
243.077
238.921
234.765
230.609
226.454
222.298
218.142
213.986
209.83
205.674
201.518
197.362
193.206
189.051
184.895
180.739
176.583
172.427
168.271
164.115
159.959
155.803
151.648
147.492
143.336
139.18
135.024
130.868
126.712
122.557
118.401
114.245
110.089
105.933
101.777
97.6213
93.4655
89.3096
85.1538
80.9979
76.8421
72.6863
68.5305
64.3748
60.2192
56.0636
51.9083
47.7531
43.5984
39.4441
35.2908
31.1386
26.9882
22.8404
18.6967
14.5577
10.4264
6.29203
2.14452
420.737
414.425
410.196
404.72
399.971
395.137
390.535
385.981
381.522
377.114
372.758
368.439
364.152
359.89
355.649
351.425
347.214
343.013
338.822
334.637
330.458
326.284
322.113
317.945
313.78
309.616
305.454
301.294
297.134
292.975
288.817
284.659
280.501
276.344
272.188
268.031
263.875
259.718
255.562
251.406
247.25
243.094
238.938
234.782
230.626
226.47
222.314
218.158
214.002
209.846
205.69
201.534
197.378
193.223
189.067
184.911
180.755
176.599
172.443
168.287
164.131
159.976
155.82
151.664
147.508
143.352
139.196
135.04
130.884
126.729
122.573
118.417
114.261
110.105
105.949
101.793
97.6375
93.4817
89.3258
85.17
81.0141
76.8583
72.7025
68.5467
64.391
60.2353
56.0798
51.9244
47.7693
43.6145
39.4603
35.3069
31.1548
27.0044
22.8566
18.713
14.5739
10.4433
6.30791
2.15796
420.669
414.435
410.218
404.739
399.986
395.15
390.549
385.995
381.536
377.128
372.771
368.452
364.166
359.904
355.663
351.438
347.227
343.027
338.835
334.651
330.472
326.297
322.127
317.959
313.793
309.63
305.468
301.307
297.147
292.988
288.83
284.672
280.515
276.358
272.201
268.044
263.888
259.732
255.575
251.419
247.263
243.107
238.951
234.795
230.639
226.483
222.327
218.171
214.016
209.86
205.704
201.548
197.392
193.236
189.08
184.924
180.768
176.613
172.457
168.301
164.145
159.989
155.833
151.677
147.521
143.366
139.21
135.054
130.898
126.742
122.586
118.43
114.274
110.119
105.963
101.807
97.651
93.4952
89.3393
85.1835
81.0276
76.8718
72.716
68.5602
64.4045
60.2488
56.0933
51.9379
47.7828
43.628
39.4738
35.3204
31.1682
27.0179
22.8701
18.7265
14.5875
10.4575
6.32114
2.16914
420.616
414.442
410.235
404.755
399.998
395.161
390.56
386.005
381.547
377.138
372.782
368.463
364.177
359.915
355.674
351.449
347.238
343.038
338.846
334.661
330.482
326.308
322.137
317.97
313.804
309.641
305.479
301.318
297.158
292.999
288.841
284.683
280.526
276.369
272.212
268.055
263.899
259.742
255.586
251.43
247.274
243.118
238.962
234.806
230.65
226.494
222.338
218.182
214.026
209.87
205.715
201.559
197.403
193.247
189.091
184.935
180.779
176.623
172.467
168.312
164.156
160
155.844
151.688
147.532
143.376
139.22
135.065
130.909
126.753
122.597
118.441
114.285
110.129
105.974
101.818
97.6618
93.506
89.3501
85.1942
81.0384
76.8826
72.7268
68.571
64.4153
60.2596
56.1041
51.9487
47.7936
43.6388
39.4846
35.3312
31.179
27.0287
22.8809
18.7373
14.5983
10.4688
6.33174
2.17808
420.576
414.447
410.248
404.767
400.007
395.169
390.568
386.014
381.555
377.147
372.791
368.472
364.185
359.923
355.682
351.457
347.246
343.046
338.854
334.669
330.491
326.316
322.145
317.978
313.812
309.649
305.487
301.326
297.166
293.007
288.849
284.691
280.534
276.377
272.22
268.063
263.907
259.751
255.594
251.438
247.282
243.126
238.97
234.814
230.658
226.502
222.346
218.19
214.034
209.879
205.723
201.567
197.411
193.255
189.099
184.943
180.787
176.631
172.476
168.32
164.164
160.008
155.852
151.696
147.54
143.384
139.229
135.073
130.917
126.761
122.605
118.449
114.293
110.138
105.982
101.826
97.6699
93.5141
89.3582
85.2023
81.0465
76.8907
72.7349
68.5791
64.4234
60.2677
56.1122
51.9568
47.8017
43.6469
39.4927
35.3393
31.1871
27.0368
22.889
18.7455
14.6064
10.4773
6.3397
2.18478
420.55
414.451
410.257
404.774
400.013
395.174
390.573
386.019
381.56
377.152
372.796
368.477
364.19
359.928
355.687
351.463
347.252
343.051
338.86
334.675
330.496
326.322
322.151
317.983
313.818
309.654
305.492
301.331
297.172
293.013
288.854
284.697
280.539
276.382
272.225
268.069
263.912
259.756
255.6
251.444
247.287
243.131
238.975
234.819
230.663
226.508
222.352
218.196
214.04
209.884
205.728
201.572
197.416
193.26
189.104
184.949
180.793
176.637
172.481
168.325
164.169
160.013
155.857
151.702
147.546
143.39
139.234
135.078
130.922
126.766
122.61
118.455
114.299
110.143
105.987
101.831
97.6753
93.5195
89.3636
85.2077
81.0519
76.8961
72.7403
68.5845
64.4288
60.2731
56.1176
51.9622
47.8071
43.6523
39.4981
35.3447
31.1925
27.0422
22.8943
18.7509
14.6119
10.483
6.345
2.18924
420.537
414.452
410.261
404.778
400.016
395.177
390.576
386.022
381.563
377.155
372.799
368.48
364.193
359.931
355.69
351.465
347.254
343.054
338.862
334.678
330.499
326.324
322.154
317.986
313.82
309.657
305.495
301.334
297.174
293.015
288.857
284.699
280.542
276.385
272.228
268.071
263.915
259.759
255.602
251.446
247.29
243.134
238.978
234.822
230.666
226.51
222.354
218.198
214.043
209.887
205.731
201.575
197.419
193.263
189.107
184.951
180.795
176.639
172.484
168.328
164.172
160.016
155.86
151.704
147.548
143.393
139.237
135.081
130.925
126.769
122.613
118.457
114.301
110.146
105.99
101.834
97.678
93.5222
89.3663
85.2104
81.0546
76.8988
72.743
68.5872
64.4315
60.2758
56.1203
51.9649
47.8098
43.655
39.5008
35.3474
31.1952
27.0449
22.897
18.7536
14.6146
10.4858
6.34765
2.19148
420.537
414.452
410.261
404.778
400.016
395.177
390.576
386.022
381.563
377.155
372.799
368.48
364.193
359.931
355.69
351.465
347.254
343.054
338.862
334.678
330.499
326.324
322.154
317.986
313.82
309.657
305.495
301.334
297.174
293.015
288.857
284.699
280.542
276.385
272.228
268.071
263.915
259.759
255.602
251.446
247.29
243.134
238.978
234.822
230.666
226.51
222.354
218.198
214.043
209.887
205.731
201.575
197.419
193.263
189.107
184.951
180.795
176.639
172.484
168.328
164.172
160.016
155.86
151.704
147.548
143.393
139.237
135.081
130.925
126.769
122.613
118.457
114.301
110.146
105.99
101.834
97.678
93.5222
89.3663
85.2105
81.0546
76.8988
72.743
68.5872
64.4315
60.2758
56.1203
51.9649
47.8098
43.655
39.5008
35.3474
31.1952
27.0449
22.897
18.7536
14.6146
10.4858
6.34766
2.19148
420.55
414.451
410.257
404.774
400.013
395.174
390.573
386.019
381.56
377.152
372.796
368.477
364.19
359.928
355.687
351.463
347.252
343.051
338.86
334.675
330.496
326.322
322.151
317.983
313.818
309.654
305.492
301.331
297.172
293.013
288.854
284.697
280.539
276.382
272.225
268.069
263.912
259.756
255.6
251.444
247.287
243.131
238.975
234.819
230.663
226.508
222.352
218.196
214.04
209.884
205.728
201.572
197.416
193.26
189.104
184.949
180.793
176.637
172.481
168.325
164.169
160.013
155.857
151.702
147.546
143.39
139.234
135.078
130.922
126.766
122.61
118.455
114.299
110.143
105.987
101.831
97.6753
93.5195
89.3636
85.2078
81.0519
76.8961
72.7403
68.5845
64.4288
60.2731
56.1176
51.9622
47.8071
43.6523
39.4981
35.3447
31.1925
27.0422
22.8943
18.7509
14.6119
10.483
6.345
2.18924
420.576
414.447
410.248
404.766
400.007
395.169
390.568
386.014
381.555
377.147
372.791
368.472
364.185
359.923
355.682
351.457
347.246
343.046
338.854
334.669
330.491
326.316
322.145
317.978
313.812
309.649
305.487
301.326
297.166
293.007
288.849
284.691
280.534
276.377
272.22
268.063
263.907
259.751
255.594
251.438
247.282
243.126
238.97
234.814
230.658
226.502
222.346
218.19
214.034
209.879
205.723
201.567
197.411
193.255
189.099
184.943
180.787
176.631
172.476
168.32
164.164
160.008
155.852
151.696
147.54
143.384
139.229
135.073
130.917
126.761
122.605
118.449
114.293
110.137
105.982
101.826
97.6699
93.5141
89.3582
85.2024
81.0465
76.8907
72.7349
68.5791
64.4234
60.2677
56.1122
51.9568
47.8017
43.6469
39.4927
35.3393
31.1871
27.0368
22.889
18.7455
14.6065
10.4773
6.3397
2.18478
420.616
414.442
410.235
404.755
399.998
395.161
390.56
386.005
381.547
377.138
372.782
368.463
364.177
359.915
355.674
351.449
347.238
343.038
338.846
334.661
330.482
326.308
322.137
317.97
313.804
309.641
305.479
301.318
297.158
292.999
288.841
284.683
280.526
276.369
272.212
268.055
263.899
259.742
255.586
251.43
247.274
243.118
238.962
234.806
230.65
226.494
222.338
218.182
214.026
209.87
205.715
201.559
197.403
193.247
189.091
184.935
180.779
176.623
172.467
168.312
164.156
160
155.844
151.688
147.532
143.376
139.22
135.065
130.909
126.753
122.597
118.441
114.285
110.129
105.974
101.818
97.6618
93.506
89.3501
85.1943
81.0384
76.8826
72.7268
68.571
64.4153
60.2596
56.1041
51.9487
47.7936
43.6388
39.4846
35.3312
31.179
27.0287
22.8809
18.7373
14.5983
10.4688
6.33175
2.17808
420.669
414.435
410.218
404.739
399.986
395.15
390.549
385.995
381.536
377.128
372.771
368.452
364.166
359.904
355.663
351.438
347.227
343.027
338.835
334.651
330.472
326.297
322.127
317.959
313.793
309.63
305.468
301.307
297.147
292.988
288.83
284.672
280.515
276.358
272.201
268.044
263.888
259.732
255.575
251.419
247.263
243.107
238.951
234.795
230.639
226.483
222.327
218.171
214.016
209.86
205.704
201.548
197.392
193.236
189.08
184.924
180.768
176.612
172.457
168.301
164.145
159.989
155.833
151.677
147.521
143.366
139.21
135.054
130.898
126.742
122.586
118.43
114.274
110.119
105.963
101.807
97.651
93.4952
89.3393
85.1835
81.0276
76.8718
72.716
68.5602
64.4045
60.2488
56.0933
51.9379
47.7828
43.628
39.4738
35.3204
31.1682
27.0179
22.8701
18.7265
14.5875
10.4575
6.32115
2.16914
420.737
414.425
410.196
404.72
399.971
395.137
390.535
385.981
381.522
377.114
372.758
368.439
364.152
359.89
355.649
351.425
347.214
343.013
338.822
334.637
330.458
326.284
322.113
317.945
313.78
309.616
305.454
301.294
297.134
292.975
288.817
284.659
280.501
276.344
272.188
268.031
263.875
259.718
255.562
251.406
247.25
243.094
238.938
234.782
230.626
226.47
222.314
218.158
214.002
209.846
205.69
201.534
197.378
193.223
189.067
184.911
180.755
176.599
172.443
168.287
164.131
159.976
155.82
151.664
147.508
143.352
139.196
135.04
130.884
126.729
122.573
118.417
114.261
110.105
105.949
101.793
97.6375
93.4817
89.3258
85.17
81.0141
76.8583
72.7025
68.5467
64.391
60.2353
56.0798
51.9244
47.7693
43.6145
39.4603
35.3069
31.1548
27.0044
22.8566
18.713
14.574
10.4433
6.30792
2.15796
420.82
414.413
410.17
404.697
399.953
395.12
390.519
385.965
381.506
377.097
372.741
368.422
364.136
359.874
355.633
351.409
347.197
342.997
338.805
334.621
330.442
326.268
322.097
317.929
313.764
309.6
305.438
301.277
297.118
292.959
288.8
284.643
280.485
276.328
272.171
268.015
263.858
259.702
255.546
251.39
247.233
243.077
238.921
234.765
230.609
226.454
222.298
218.142
213.986
209.83
205.674
201.518
197.362
193.206
189.05
184.895
180.739
176.583
172.427
168.271
164.115
159.959
155.803
151.648
147.492
143.336
139.18
135.024
130.868
126.712
122.557
118.401
114.245
110.089
105.933
101.777
97.6214
93.4655
89.3096
85.1538
80.9979
76.8421
72.6863
68.5305
64.3748
60.2191
56.0636
51.9082
47.7531
43.5983
39.4441
35.2908
31.1386
26.9883
22.8405
18.6968
14.5577
10.4264
6.29205
2.14452
420.919
414.396
410.139
404.67
399.932
395.101
390.5
385.946
381.486
377.078
372.722
368.403
364.117
359.855
355.614
351.389
347.178
342.978
338.786
334.602
330.423
326.249
322.078
317.91
313.745
309.581
305.419
301.259
297.099
292.94
288.782
284.624
280.466
276.309
272.153
267.996
263.839
259.683
255.527
251.371
247.215
243.059
238.903
234.747
230.591
226.435
222.279
218.123
213.967
209.811
205.655
201.499
197.343
193.187
189.032
184.876
180.72
176.564
172.408
168.252
164.096
159.94
155.785
151.629
147.473
143.317
139.161
135.005
130.849
126.693
122.538
118.382
114.226
110.07
105.914
101.758
97.6025
93.4466
89.2908
85.1349
80.979
76.8232
72.6674
68.5116
64.3559
60.2002
56.0447
51.8893
47.7342
43.5795
39.4252
35.2719
31.1197
26.9694
22.8216
18.6778
14.5388
10.4067
6.27355
2.12882
421.037
414.375
410.104
404.64
399.908
395.08
390.478
385.924
381.464
377.056
372.7
368.381
364.095
359.833
355.592
351.368
347.157
342.956
338.765
334.58
330.401
326.227
322.056
317.889
313.723
309.56
305.398
301.237
297.077
292.918
288.76
284.602
280.445
276.288
272.131
267.974
263.818
259.662
255.505
251.349
247.193
243.037
238.881
234.725
230.569
226.413
222.257
218.101
213.945
209.789
205.634
201.478
197.322
193.166
189.01
184.854
180.698
176.542
172.386
168.231
164.075
159.919
155.763
151.607
147.451
143.295
139.14
134.984
130.828
126.672
122.516
118.36
114.204
110.048
105.893
101.737
97.5809
93.425
89.2692
85.1133
80.9575
76.8016
72.6458
68.49
64.3343
60.1787
56.0231
51.8677
47.7126
43.5579
39.4037
35.2503
31.0981
26.9478
22.8001
18.6562
14.5171
10.3843
6.25243
2.11084
421.173
414.348
410.064
404.606
399.881
395.055
390.453
385.899
381.439
377.031
372.675
368.357
364.07
359.809
355.568
351.343
347.132
342.932
338.74
334.556
330.377
326.203
322.032
317.864
313.699
309.535
305.373
301.213
297.053
292.894
288.736
284.578
280.421
276.263
272.107
267.95
263.794
259.637
255.481
251.325
247.169
243.013
238.857
234.701
230.545
226.389
222.233
218.077
213.921
209.765
205.609
201.453
197.298
193.142
188.986
184.83
180.674
176.518
172.362
168.206
164.05
159.895
155.739
151.583
147.427
143.271
139.115
134.959
130.803
126.648
122.492
118.336
114.18
110.024
105.868
101.712
97.5566
93.4007
89.2449
85.089
80.9332
76.7773
72.6215
68.4657
64.31
60.1544
55.9988
51.8435
47.6883
43.5336
39.3794
35.226
31.0739
26.9236
22.7758
18.6319
14.4927
10.3591
6.2287
2.09057
421.329
414.315
410.019
404.569
399.85
395.027
390.425
385.871
381.412
377.004
372.648
368.329
364.043
359.781
355.541
351.316
347.105
342.905
338.713
334.529
330.35
326.176
322.005
317.837
313.672
309.508
305.346
301.186
297.026
292.867
288.709
284.551
280.394
276.236
272.08
267.923
263.767
259.61
255.454
251.298
247.142
242.986
238.83
234.674
230.518
226.362
222.206
218.05
213.894
209.738
205.582
201.426
197.271
193.115
188.959
184.803
180.647
176.491
172.335
168.179
164.023
159.868
155.712
151.556
147.4
143.244
139.088
134.932
130.777
126.621
122.465
118.309
114.153
109.997
105.841
101.685
97.5296
93.3738
89.2179
85.062
80.9062
76.7504
72.5945
68.4388
64.283
60.1274
55.9719
51.8165
47.6614
43.5066
39.3524
35.1991
31.0469
26.8966
22.7489
18.6049
14.4657
10.3313
6.20235
2.06797
421.509
414.274
409.969
404.529
399.816
394.997
390.394
385.841
381.381
376.973
372.618
368.299
364.013
359.751
355.511
351.286
347.075
342.875
338.684
334.499
330.32
326.146
321.975
317.808
313.642
309.479
305.317
301.156
296.996
292.837
288.679
284.521
280.364
276.207
272.05
267.893
263.737
259.581
255.424
251.268
247.112
242.956
238.8
234.644
230.488
226.332
222.176
218.02
213.864
209.709
205.553
201.397
197.241
193.085
188.929
184.773
180.617
176.461
172.306
168.15
163.994
159.838
155.682
151.526
147.37
143.214
139.059
134.903
130.747
126.591
122.435
118.279
114.123
109.968
105.812
101.656
97.5
93.3441
89.1882
85.0324
80.8765
76.7207
72.5649
68.4091
64.2534
60.0977
55.9422
51.7868
47.6317
43.477
39.3228
35.1694
31.0173
26.867
22.7193
18.5752
14.436
10.3008
6.17341
2.04304
421.715
414.222
409.914
404.485
399.78
394.963
390.36
385.807
381.348
376.94
372.585
368.266
363.98
359.719
355.478
351.254
347.043
342.843
338.651
334.467
330.288
326.114
321.943
317.775
313.61
309.446
305.284
301.124
296.964
292.805
288.647
284.489
280.332
276.175
272.018
267.861
263.705
259.548
255.392
251.236
247.08
242.924
238.768
234.612
230.456
226.3
222.144
217.988
213.832
209.676
205.52
201.364
197.209
193.053
188.897
184.741
180.585
176.429
172.273
168.117
163.962
159.806
155.65
151.494
147.338
143.182
139.026
134.87
130.715
126.559
122.403
118.247
114.091
109.935
105.779
101.624
97.4677
93.3118
89.1559
85.0001
80.8442
76.6884
72.5326
68.3768
64.2211
60.0654
55.9099
51.7545
47.5994
43.4447
39.2905
35.1371
30.985
26.8347
22.687
18.5429
14.4036
10.2678
6.14195
2.01579
421.95
414.159
409.854
404.44
399.74
394.927
390.324
385.771
381.312
376.905
372.549
368.231
363.945
359.683
355.443
351.219
347.008
342.808
338.616
334.432
330.253
326.079
321.908
317.741
313.575
309.412
305.25
301.089
296.929
292.77
288.612
284.454
280.297
276.14
271.983
267.826
263.67
259.514
255.357
251.201
247.045
242.889
238.733
234.577
230.421
226.265
222.109
217.953
213.797
209.642
205.486
201.33
197.174
193.018
188.862
184.706
180.55
176.394
172.239
168.083
163.927
159.771
155.615
151.459
147.303
143.148
138.992
134.836
130.68
126.524
122.368
118.212
114.056
109.901
105.745
101.589
97.433
93.2771
89.1213
84.9654
80.8096
76.6537
72.4979
68.3421
64.1864
60.0308
55.8752
51.7199
47.5647
43.41
39.2558
35.1025
30.9504
26.8001
22.6524
18.5082
14.3689
10.2324
6.10819
1.98639
422.222
414.081
409.791
404.392
399.697
394.889
390.285
385.733
381.273
376.867
372.511
368.193
363.907
359.646
355.406
351.182
346.971
342.771
338.579
334.395
330.216
326.042
321.871
317.704
313.538
309.375
305.213
301.052
296.893
292.734
288.575
284.418
280.26
276.103
271.946
267.79
263.633
259.477
255.321
251.165
247.008
242.852
238.696
234.54
230.384
226.229
222.073
217.917
213.761
209.605
205.449
201.293
197.137
192.981
188.825
184.67
180.514
176.358
172.202
168.046
163.89
159.734
155.578
151.423
147.267
143.111
138.955
134.799
130.643
126.487
122.331
118.176
114.02
109.864
105.708
101.552
97.3963
93.2405
89.0846
84.9287
80.7729
76.6171
72.4612
68.3055
64.1497
59.9941
55.8386
51.6832
47.5281
43.3734
39.2192
35.0659
30.9138
26.7635
22.6158
18.4715
14.3321
10.1952
6.07235
1.95497
422.527
413.986
409.725
404.342
399.652
394.848
390.244
385.693
381.233
376.827
372.472
368.154
363.868
359.607
355.367
351.143
346.932
342.732
338.541
334.357
330.178
326.004
321.833
317.665
313.5
309.337
305.175
301.014
296.854
292.695
288.537
284.379
280.222
276.065
271.908
267.751
263.595
259.439
255.282
251.126
246.97
242.814
238.658
234.502
230.346
226.19
222.034
217.878
213.722
209.567
205.411
201.255
197.099
192.943
188.787
184.631
180.475
176.319
172.164
168.008
163.852
159.696
155.54
151.384
147.228
143.072
138.917
134.761
130.605
126.449
122.293
118.137
113.981
109.826
105.67
101.514
97.358
93.2021
89.0462
84.8904
80.7345
76.5787
72.4229
68.2671
64.1114
59.9557
55.8002
51.6448
47.4897
43.335
39.1808
35.0275
30.8754
26.7251
22.5775
18.4332
14.2938
10.1564
6.03463
1.92171
422.865
413.875
409.66
404.296
399.609
394.808
390.204
385.654
381.195
376.789
372.434
368.117
363.831
359.57
355.33
351.106
346.895
342.696
338.504
334.32
330.141
325.967
321.797
317.629
313.464
309.3
305.138
300.978
296.818
292.659
288.501
284.343
280.185
276.028
271.872
267.715
263.559
259.402
255.246
251.09
246.934
242.778
238.622
234.466
230.31
226.154
221.998
217.842
213.686
209.53
205.374
201.218
197.062
192.907
188.751
184.595
180.439
176.283
172.127
167.971
163.815
159.66
155.504
151.348
147.192
143.036
138.88
134.724
130.568
126.413
122.257
118.101
113.945
109.789
105.633
101.477
97.3216
93.1657
89.0098
84.854
80.6981
76.5423
72.3865
68.2307
64.075
59.9193
55.7638
51.6084
47.4533
43.2986
39.1445
34.9911
30.8391