/*--------------------------------*- C++ -*----------------------------------*\
| =========                 |                                                 |
| \\      /  F ield         | OpenFOAM: The Open Source CFD Toolbox           |
|  \\    /   O peration     | Version:  v1906                                 |
|   \\  /    A nd           | Web:      www.OpenFOAM.com                      |
|    \\/     M anipulation  |                                                 |
\*---------------------------------------------------------------------------*/
FoamFile
{
    version     2.0;
    format      ascii;
    class       volScalarField;
    location    "2";
    object      p;
}
// * * * * * * * * * * * * * * * * * * * * * * * * * * * * * * * * * * * * * //

dimensions      [0 2 -2 0 0 0 0];


internalField   nonuniform List<scalar> 
4000
(
838.076
820.552
814.232
803.033
795.364
785.892
777.81
769.029
760.799
752.297
744.014
735.625
727.323
718.98
710.671
702.347
694.036
685.719
677.408
669.094
660.782
652.47
644.158
635.846
627.534
619.223
610.911
602.599
594.287
585.976
577.664
569.352
561.041
552.729
544.417
536.106
527.794
519.482
511.171
502.859
494.547
486.236
477.924
469.612
461.301
452.989
444.677
436.366
428.054
419.742
411.431
403.119
394.807
386.496
378.184
369.872
361.561
353.249
344.937
336.626
328.314
320.002
311.691
303.379
295.067
286.756
278.444
270.132
261.821
253.509
245.197
236.886
228.574
220.262
211.95
203.639
195.327
187.015
178.704
170.392
162.08
153.769
145.457
137.145
128.833
120.522
112.21
103.898
95.5867
87.275
78.9633
70.6517
62.3402
54.0289
45.718
37.4083
29.1007
20.797
12.5045
4.21437
836.937
820.367
814.054
802.837
795.176
785.698
777.619
768.835
760.606
752.103
743.82
735.431
727.129
718.786
710.477
702.153
693.842
685.525
677.214
668.9
660.589
652.276
643.964
635.652
627.341
619.029
610.717
602.405
594.094
585.782
577.47
569.159
560.847
552.535
544.224
535.912
527.6
519.289
510.977
502.665
494.354
486.042
477.73
469.419
461.107
452.795
444.484
436.172
427.86
419.549
411.237
402.925
394.614
386.302
377.99
369.679
361.367
353.055
344.744
336.432
328.12
319.809
311.497
303.185
294.874
286.562
278.25
269.939
261.627
253.315
245.004
236.692
228.38
220.068
211.757
203.445
195.133
186.822
178.51
170.198
161.887
153.575
145.263
136.952
128.64
120.328
112.016
103.705
95.393
87.0813
78.7697
70.4581
62.1465
53.8352
45.5243
37.2146
28.9071
20.6033
12.3111
4.02424
836.409
820.295
813.982
802.748
795.094
785.609
777.534
768.747
760.52
752.016
743.733
735.344
727.042
718.698
710.39
702.066
693.755
685.438
677.127
668.813
660.501
652.189
643.877
635.565
627.253
618.942
610.63
602.318
594.006
585.695
577.383
569.071
560.76
552.448
544.136
535.825
527.513
519.201
510.89
502.578
494.266
485.955
477.643
469.331
461.02
452.708
444.396
436.085
427.773
419.461
411.15
402.838
394.526
386.215
377.903
369.591
361.28
352.968
344.656
336.345
328.033
319.721
311.41
303.098
294.786
286.475
278.163
269.851
261.539
253.228
244.916
236.604
228.293
219.981
211.669
203.358
195.046
186.734
178.423
170.111
161.799
153.488
145.176
136.864
128.552
120.241
111.929
103.617
95.3056
86.994
78.6823
70.3707
62.0591
53.7479
45.437
37.1272
28.8197
20.5159
12.2238
3.93794
836.289
820.329
813.997
802.755
795.106
785.617
777.543
768.756
760.528
752.024
743.742
735.352
727.05
718.706
710.398
702.073
693.763
685.446
677.135
668.821
660.509
652.197
643.885
635.573
627.261
618.949
610.638
602.326
594.014
585.703
577.391
569.079
560.768
552.456
544.144
535.833
527.521
519.209
510.897
502.586
494.274
485.962
477.651
469.339
461.028
452.716
444.404
436.093
427.781
419.469
411.158
402.846
394.534
386.223
377.911
369.599
361.288
352.976
344.664
336.352
328.041
319.729
311.417
303.106
294.794
286.482
278.171
269.859
261.547
253.236
244.924
236.612
228.301
219.989
211.677
203.366
195.054
186.742
178.431
170.119
161.807
153.495
145.184
136.872
128.56
120.249
111.937
103.625
95.3135
87.0019
78.6902
70.3786
62.067
53.7558
45.4449
37.1351
28.8275
20.5238
12.2318
3.94495
836.257
820.397
814.039
802.793
795.145
785.654
777.581
768.792
760.565
752.06
743.778
735.388
727.086
718.743
710.435
702.11
693.799
685.482
677.171
668.857
660.546
652.233
643.921
635.609
627.298
618.986
610.674
602.362
594.051
585.739
577.427
569.116
560.804
552.492
544.181
535.869
527.557
519.246
510.934
502.622
494.311
485.999
477.687
469.376
461.064
452.752
444.441
436.129
427.817
419.506
411.194
402.882
394.571
386.259
377.947
369.636
361.324
353.012
344.701
336.389
328.077
319.766
311.454
303.142
294.831
286.519
278.207
269.896
261.584
253.272
244.96
236.649
228.337
220.025
211.714
203.402
195.09
186.779
178.467
170.155
161.844
153.532
145.22
136.908
128.597
120.285
111.973
103.662
95.35
87.0383
78.7266
70.415
62.1035
53.7922
45.4813
37.1715
28.8639
20.5602
12.2679
3.97911
836.228
820.465
814.082
802.834
795.186
785.693
777.62
768.831
760.604
752.099
743.817
735.426
727.125
718.781
710.473
702.148
693.838
685.521
677.21
668.896
660.584
652.272
643.96
635.648
627.336
619.024
610.713
602.401
594.089
585.778
577.466
569.154
560.842
552.531
544.219
535.907
527.596
519.284
510.972
502.661
494.349
486.037
477.726
469.414
461.102
452.791
444.479
436.167
427.856
419.544
411.232
402.921
394.609
386.297
377.986
369.674
361.362
353.051
344.739
336.427
328.116
319.804
311.492
303.181
294.869
286.557
278.246
269.934
261.622
253.311
244.999
236.687
228.376
220.064
211.752
203.441
195.129
186.817
178.505
170.194
161.882
153.57
145.259
136.947
128.635
120.324
112.012
103.7
95.3885
87.0768
78.7651
70.4535
62.142
53.8307
45.5198
37.21
28.9024
20.5987
12.3062
4.01615
836.198
820.527
814.122
802.872
795.225
785.731
777.658
768.868
760.641
752.136
743.854
735.463
727.162
718.818
710.51
702.185
693.874
685.558
677.246
668.932
660.621
652.308
643.997
635.685
627.373
619.061
610.749
602.438
594.126
585.814
577.503
569.191
560.879
552.567
544.256
535.944
527.632
519.321
511.009
502.697
494.386
486.074
477.762
469.451
461.139
452.827
444.516
436.204
427.892
419.581
411.269
402.957
394.646
386.334
378.022
369.711
361.399
353.087
344.776
336.464
328.152
319.841
311.529
303.217
294.906
286.594
278.282
269.971
261.659
253.347
245.036
236.724
228.412
220.101
211.789
203.477
195.166
186.854
178.542
170.23
161.919
153.607
145.295
136.984
128.672
120.36
112.049
103.737
95.4251
87.1135
78.8018
70.4902
62.1786
53.8674
45.5564
37.2467
28.939
20.6354
12.3427
4.05166
836.174
820.584
814.16
802.907
795.262
785.766
777.694
768.903
760.676
752.17
743.888
735.498
727.196
718.853
710.544
702.22
693.909
685.592
677.281
668.967
660.655
652.343
644.031
635.719
627.408
619.096
610.784
602.472
594.161
585.849
577.537
569.226
560.914
552.602
544.29
535.979
527.667
519.355
511.044
502.732
494.42
486.109
477.797
469.485
461.174
452.862
444.55
436.239
427.927
419.615
411.304
402.992
394.68
386.369
378.057
369.745
361.434
353.122
344.81
336.499
328.187
319.875
311.564
303.252
294.94
286.629
278.317
270.005
261.694
253.382
245.07
236.759
228.447
220.135
211.824
203.512
195.2
186.888
178.577
170.265
161.953
153.642
145.33
137.018
128.707
120.395
112.083
103.772
95.4598
87.1481
78.8365
70.5249
62.2133
53.902
45.5911
37.2813
28.9737
20.6702
12.3772
4.08521
836.152
820.637
814.196
802.94
795.296
785.798
777.727
768.935
760.709
752.203
743.921
735.53
727.229
718.885
710.577
702.252
693.941
685.624
677.313
668.999
660.688
652.375
644.064
635.752
627.44
619.128
610.816
602.505
594.193
585.881
577.57
569.258
560.946
552.634
544.323
536.011
527.699
519.388
511.076
502.764
494.453
486.141
477.829
469.518
461.206
452.894
444.583
436.271
427.959
419.648
411.336
403.024
394.713
386.401
378.089
369.778
361.466
353.154
344.843
336.531
328.219
319.908
311.596
303.284
294.973
286.661
278.349
270.038
261.726
253.414
245.103
236.791
228.479
220.168
211.856
203.544
195.232
186.921
178.609
170.297
161.986
153.674
145.362
137.051
128.739
120.427
112.116
103.804
95.4921
87.1804
78.8688
70.5571
62.2456
53.9343
45.6234
37.3136
29.0059
20.7025
12.4093
4.11654
836.132
820.684
814.228
802.97
795.327
785.828
777.757
768.965
760.739
752.232
743.951
735.56
727.258
718.915
710.606
702.282
693.971
685.654
677.343
669.029
660.717
652.405
644.093
635.781
627.469
619.158
610.846
602.534
594.223
585.911
577.599
569.287
560.976
552.664
544.352
536.041
527.729
519.417
511.106
502.794
494.482
486.171
477.859
469.547
461.236
452.924
444.612
436.301
427.989
419.677
411.366
403.054
394.742
386.431
378.119
369.807
361.496
353.184
344.872
336.561
328.249
319.937
311.626
303.314
295.002
286.691
278.379
270.067
261.756
253.444
245.132
236.821
228.509
220.197
211.886
203.574
195.262
186.95
178.639
170.327
162.015
153.704
145.392
137.08
128.769
120.457
112.145
103.833
95.5218
87.2101
78.8984
70.5868
62.2753
53.964
45.6531
37.3433
29.0355
20.7323
12.4388
4.14544
836.115
820.726
814.258
802.997
795.356
785.854
777.785
768.992
760.766
752.259
743.978
735.587
727.286
718.942
710.633
702.309
693.998
685.681
677.37
669.056
660.744
652.432
644.12
635.808
627.496
619.185
610.873
602.561
594.25
585.938
577.626
569.314
561.003
552.691
544.379
536.068
527.756
519.444
511.133
502.821
494.509
486.198
477.886
469.574
461.263
452.951
444.639
436.328
428.016
419.704
411.393
403.081
394.769
386.458
378.146
369.834
361.523
353.211
344.899
336.588
328.276
319.964
311.653
303.341
295.029
286.718
278.406
270.094
261.783
253.471
245.159
236.848
228.536
220.224
211.912
203.601
195.289
186.977
178.666
170.354
162.042
153.731
145.419
137.107
128.796
120.484
112.172
103.86
95.5488
87.2371
78.9254
70.6138
62.3022
53.991
45.68
37.3703
29.0625
20.7593
12.4657
4.17179
836.099
820.764
814.284
803.021
795.381
785.879
777.81
769.016
760.791
752.284
744.002
735.611
727.31
718.966
710.658
702.333
694.022
685.705
677.394
669.08
660.769
652.456
644.144
635.832
627.521
619.209
610.897
602.586
594.274
585.962
577.65
569.339
561.027
552.715
544.404
536.092
527.78
519.469
511.157
502.845
494.534
486.222
477.91
469.599
461.287
452.975
444.664
436.352
428.04
419.729
411.417
403.105
394.794
386.482
378.17
369.859
361.547
353.235
344.924
336.612
328.3
319.989
311.677
303.365
295.054
286.742
278.43
270.119
261.807
253.495
245.184
236.872
228.56
220.248
211.937
203.625
195.313
187.002
178.69
170.378
162.067
153.755
145.443
137.132
128.82
120.508
112.196
103.885
95.573
87.2614
78.9497
70.6381
62.3265
54.0152
45.7043
37.3945
29.0867
20.7837
12.4898
4.19558
836.085
820.797
814.308
803.043
795.404
785.9
777.832
769.037
760.813
752.305
744.024
735.633
727.331
718.987
710.679
702.355
694.044
685.727
677.416
669.102
660.79
652.478
644.166
635.854
627.542
619.231
610.919
602.607
594.295
585.984
577.672
569.36
561.049
552.737
544.425
536.114
527.802
519.49
511.179
502.867
494.555
486.244
477.932
469.62
461.309
452.997
444.685
436.374
428.062
419.75
411.439
403.127
394.815
386.504
378.192
369.88
361.569
353.257
344.945
336.634
328.322
320.01
311.699
303.387
295.075
286.764
278.452
270.14
261.828
253.517
245.205
236.893
228.582
220.27
211.958
203.647
195.335
187.023
178.712
170.4
162.088
153.777
145.465
137.153
128.841
120.53
112.218
103.906
95.5946
87.2829
78.9713
70.6597
62.3481
54.0368
45.7259
37.4161
29.1083
20.8054
12.5113
4.21678
836.072
820.826
814.328
803.061
795.424
785.919
777.852
769.056
760.832
752.324
744.043
735.652
727.35
719.006
710.698
702.373
694.063
685.746
677.435
669.121
660.809
652.497
644.185
635.873
627.561
619.249
610.938
602.626
594.314
586.003
577.691
569.379
561.068
552.756
544.444
536.133
527.821
519.509
511.197
502.886
494.574
486.262
477.951
469.639
461.327
453.016
444.704
436.393
428.081
419.769
411.458
403.146
394.834
386.523
378.211
369.899
361.587
353.276
344.964
336.652
328.341
320.029
311.717
303.406
295.094
286.782
278.471
270.159
261.847
253.536
245.224
236.912
228.601
220.289
211.977
203.666
195.354
187.042
178.73
170.419
162.107
153.795
145.484
137.172
128.86
120.549
112.237
103.925
95.6135
87.3018
78.9902
70.6786
62.367
54.0557
45.7448
37.435
29.1272
20.8244
12.5301
4.23537
836.062
820.85
814.346
803.077
795.441
785.935
777.868
769.072
760.848
752.34
744.059
735.668
727.367
719.023
710.714
702.39
694.079
685.762
677.451
669.137
660.825
652.513
644.201
635.889
627.577
619.266
610.954
602.642
594.33
586.019
577.707
569.395
561.084
552.772
544.46
536.149
527.837
519.525
511.214
502.902
494.59
486.279
477.967
469.655
461.344
453.032
444.72
436.409
428.097
419.785
411.474
403.162
394.85
386.539
378.227
369.915
361.604
353.292
344.98
336.669
328.357
320.045
311.734
303.422
295.11
286.799
278.487
270.175
261.864
253.552
245.24
236.929
228.617
220.305
211.993
203.682
195.37
187.058
178.747
170.435
162.123
153.812
145.5
137.188
128.876
120.565
112.253
103.941
95.6297
87.318
79.0063
70.6947
62.3832
54.0719
45.761
37.4512
29.1433
20.8406
12.5462
4.25133
836.053
820.87
814.361
803.09
795.455
785.948
777.882
769.086
760.862
752.354
744.073
735.681
727.38
719.036
710.728
702.403
694.093
685.776
677.464
669.15
660.839
652.526
644.215
635.903
627.591
619.279
610.967
602.656
594.344
586.032
577.721
569.409
561.097
552.786
544.474
536.162
527.851
519.539
511.227
502.915
494.604
486.292
477.98
469.669
461.357
453.046
444.734
436.422
428.111
419.799
411.487
403.176
394.864
386.552
378.241
369.929
361.617
353.306
344.994
336.682
328.37
320.059
311.747
303.435
295.124
286.812
278.5
270.189
261.877
253.565
245.254
236.942
228.63
220.319
212.007
203.695
195.384
187.072
178.76
170.448
162.137
153.825
145.513
137.202
128.89
120.578
112.267
103.955
95.6432
87.3315
79.0198
70.7082
62.3967
54.0854
45.7744
37.4647
29.1568
20.8542
12.5596
4.26466
836.046
820.886
814.372
803.101
795.467
785.958
777.893
769.096
760.873
752.364
744.083
735.692
727.391
719.047
710.739
702.414
694.103
685.786
677.475
669.161
660.85
652.537
644.225
635.913
627.602
619.29
610.978
602.666
594.355
586.043
577.731
569.42
561.108
552.796
544.485
536.173
527.861
519.55
511.238
502.926
494.615
486.303
477.991
469.68
461.368
453.056
444.745
436.433
428.121
419.81
411.498
403.186
394.875
386.563
378.251
369.94
361.628
353.316
345.005
336.693
328.381
320.07
311.758
303.446
295.135
286.823
278.511
270.2
261.888
253.576
245.264
236.953
228.641
220.329
212.018
203.706
195.394
187.083
178.771
170.459
162.148
153.836
145.524
137.212
128.901
120.589
112.277
103.966
95.654
87.3423
79.0306
70.719
62.4075
54.0962
45.7852
37.4755
29.1676
20.8651
12.5704
4.27533
836.041
820.898
814.381
803.109
795.475
785.966
777.901
769.104
760.881
752.372
744.092
735.7
727.399
719.055
710.747
702.422
694.111
685.794
677.483
669.169
660.858
652.545
644.234
635.921
627.61
619.298
610.986
602.675
594.363
586.051
577.739
569.428
561.116
552.804
544.493
536.181
527.869
519.558
511.246
502.934
494.623
486.311
477.999
469.688
461.376
453.064
444.753
436.441
428.129
419.818
411.506
403.194
394.883
386.571
378.259
369.948
361.636
353.324
345.013
336.701
328.389
320.078
311.766
303.454
295.143
286.831
278.519
270.208
261.896
253.584
245.273
236.961
228.649
220.338
212.026
203.714
195.402
187.091
178.779
170.467
162.156
153.844
145.532
137.221
128.909
120.597
112.285
103.974
95.6621
87.3504
79.0387
70.7271
62.4156
54.1043
45.7933
37.4836
29.1756
20.8732
12.5785
4.28335
836.037
820.906
814.387
803.114
795.481
785.972
777.907
769.11
760.886
752.378
744.097
735.705
727.404
719.06
710.752
702.427
694.117
685.8
677.489
669.175
660.863
652.551
644.239
635.927
627.615
619.303
610.992
602.68
594.368
586.057
577.745
569.433
561.122
552.81
544.498
536.186
527.875
519.563
511.251
502.94
494.628
486.316
478.005
469.693
461.381
453.07
444.758
436.446
428.135
419.823
411.511
403.2
394.888
386.576
378.265
369.953
361.641
353.33
345.018
336.706
328.395
320.083
311.771
303.46
295.148
286.836
278.525
270.213
261.901
253.59
245.278
236.966
228.655
220.343
212.031
203.72
195.408
187.096
178.784
170.473
162.161
153.849
145.538
137.226
128.914
120.603
112.291
103.979
95.6675
87.3558
79.0441
70.7325
62.421
54.1097
45.7987
37.489
29.181
20.8786
12.5838
4.28869
836.035
820.91
814.39
803.117
795.484
785.974
777.91
769.112
760.889
752.38
744.1
735.708
727.407
719.063
710.755
702.43
694.12
685.803
677.491
669.177
660.866
652.553
644.242
635.93
627.618
619.306
610.994
602.683
594.371
586.059
577.748
569.436
561.124
552.813
544.501
536.189
527.878
519.566
511.254
502.942
494.631
486.319
478.007
469.696
461.384
453.072
444.761
436.449
428.138
419.826
411.514
403.203
394.891
386.579
378.268
369.956
361.644
353.332
345.021
336.709
328.397
320.086
311.774
303.462
295.151
286.839
278.527
270.216
261.904
253.592
245.281
236.969
228.657
220.346
212.034
203.722
195.411
187.099
178.787
170.475
162.164
153.852
145.54
137.229
128.917
120.605
112.294
103.982
95.6702
87.3585
79.0468
70.7352
62.4237
54.1124
45.8014
37.4917
29.1837
20.8813
12.5865
4.29137
836.035
820.91
814.39
803.117
795.484
785.974
777.91
769.112
760.889
752.38
744.1
735.708
727.407
719.063
710.755
702.43
694.12
685.803
677.491
669.177
660.866
652.553
644.242
635.93
627.618
619.306
610.994
602.683
594.371
586.059
577.748
569.436
561.124
552.813
544.501
536.189
527.878
519.566
511.254
502.942
494.631
486.319
478.007
469.696
461.384
453.072
444.761
436.449
428.138
419.826
411.514
403.203
394.891
386.579
378.268
369.956
361.644
353.332
345.021
336.709
328.397
320.086
311.774
303.462
295.151
286.839
278.527
270.216
261.904
253.592
245.281
236.969
228.657
220.346
212.034
203.722
195.411
187.099
178.787
170.475
162.164
153.852
145.54
137.229
128.917
120.605
112.294
103.982
95.6702
87.3585
79.0468
70.7352
62.4237
54.1124
45.8014
37.4917
29.1837
20.8813
12.5865
4.29137
836.037
820.906
814.387
803.114
795.481
785.972
777.907
769.11
760.886
752.378
744.097
735.705
727.404
719.06
710.752
702.427
694.117
685.8
677.489
669.175
660.863
652.551
644.239
635.927
627.615
619.303
610.992
602.68
594.368
586.057
577.745
569.433
561.122
552.81
544.498
536.186
527.875
519.563
511.251
502.94
494.628
486.316
478.005
469.693
461.381
453.07
444.758
436.446
428.135
419.823
411.511
403.2
394.888
386.576
378.265
369.953
361.641
353.33
345.018
336.706
328.395
320.083
311.771
303.46
295.148
286.836
278.525
270.213
261.901
253.59
245.278
236.966
228.655
220.343
212.031
203.72
195.408
187.096
178.784
170.473
162.161
153.849
145.538
137.226
128.914
120.603
112.291
103.979
95.6675
87.3558
79.0441
70.7325
62.421
54.1097
45.7987
37.489
29.181
20.8786
12.5838
4.28869
836.041
820.898
814.381
803.109
795.475
785.966
777.901
769.104
760.881
752.372
744.092
735.7
727.399
719.055
710.747
702.422
694.111
685.794
677.483
669.169
660.858
652.545
644.234
635.921
627.61
619.298
610.986
602.675
594.363
586.051
577.739
569.428
561.116
552.804
544.493
536.181
527.869
519.558
511.246
502.934
494.623
486.311
477.999
469.688
461.376
453.064
444.753
436.441
428.129
419.818
411.506
403.194
394.883
386.571
378.259
369.948
361.636
353.324
345.013
336.701
328.389
320.078
311.766
303.454
295.143
286.831
278.519
270.208
261.896
253.584
245.273
236.961
228.649
220.338
212.026
203.714
195.402
187.091
178.779
170.467
162.156
153.844
145.532
137.221
128.909
120.597
112.285
103.974
95.6621
87.3504
79.0387
70.7271
62.4156
54.1043
45.7933
37.4836
29.1756
20.8732
12.5785
4.28335
836.046
820.886
814.372
803.101
795.467
785.958
777.893
769.096
760.873
752.364
744.083
735.692
727.391
719.047
710.739
702.414
694.103
685.786
677.475
669.161
660.85
652.537
644.225
635.913
627.602
619.29
610.978
602.666
594.355
586.043
577.731
569.42
561.108
552.796
544.485
536.173
527.861
519.55
511.238
502.926
494.615
486.303
477.991
469.68
461.368
453.056
444.745
436.433
428.121
419.81
411.498
403.186
394.875
386.563
378.251
369.94
361.628
353.316
345.005
336.693
328.381
320.07
311.758
303.446
295.135
286.823
278.511
270.2
261.888
253.576
245.264
236.953
228.641
220.329
212.018
203.706
195.394
187.083
178.771
170.459
162.148
153.836
145.524
137.212
128.901
120.589
112.277
103.966
95.654
87.3423
79.0306
70.719
62.4075
54.0962
45.7852
37.4755
29.1676
20.8651
12.5704
4.27533
836.053
820.87
814.361
803.09
795.455
785.948
777.882
769.086
760.862
752.354
744.073
735.681
727.38
719.036
710.728
702.403
694.093
685.776
677.464
669.15
660.839
652.526
644.215
635.903
627.591
619.279
610.967
602.656
594.344
586.032
577.721
569.409
561.097
552.786
544.474
536.162
527.851
519.539
511.227
502.916
494.604
486.292
477.98
469.669
461.357
453.046
444.734
436.422
428.111
419.799
411.487
403.176
394.864
386.552
378.241
369.929
361.617
353.306
344.994
336.682
328.37
320.059
311.747
303.435
295.124
286.812
278.5
270.189
261.877
253.565
245.254
236.942
228.63
220.319
212.007
203.695
195.384
187.072
178.76
170.448
162.137
153.825
145.513
137.202
128.89
120.578
112.267
103.955
95.6432
87.3315
79.0198
70.7082
62.3967
54.0854
45.7744
37.4647
29.1568
20.8542
12.5596
4.26466
836.062
820.85
814.346
803.077
795.441
785.935
777.868
769.072
760.848
752.34
744.059
735.668
727.367
719.023
710.714
702.39
694.079
685.762
677.451
669.137
660.825
652.513
644.201
635.889
627.577
619.266
610.954
602.642
594.33
586.019
577.707
569.395
561.084
552.772
544.46
536.149
527.837
519.525
511.214
502.902
494.59
486.279
477.967
469.655
461.344
453.032
444.72
436.409
428.097
419.785
411.474
403.162
394.85
386.539
378.227
369.915
361.604
353.292
344.98
336.669
328.357
320.045
311.734
303.422
295.11
286.799
278.487
270.175
261.864
253.552
245.24
236.929
228.617
220.305
211.993
203.682
195.37
187.058
178.747
170.435
162.123
153.812
145.5
137.188
128.877
120.565
112.253
103.941
95.6297
87.318
79.0063
70.6947
62.3832
54.0719
45.761
37.4512
29.1433
20.8406
12.5462
4.25133
836.072
820.826
814.328
803.061
795.424
785.919
777.852
769.056
760.832
752.324
744.043
735.652
727.35
719.006
710.698
702.373
694.063
685.746
677.435
669.121
660.809
652.497
644.185
635.873
627.561
619.249
610.938
602.626
594.314
586.003
577.691
569.379
561.068
552.756
544.444
536.133
527.821
519.509
511.197
502.886
494.574
486.262
477.951
469.639
461.327
453.016
444.704
436.392
428.081
419.769
411.458
403.146
394.834
386.523
378.211
369.899
361.587
353.276
344.964
336.652
328.341
320.029
311.717
303.406
295.094
286.782
278.471
270.159
261.847
253.536
245.224
236.912
228.601
220.289
211.977
203.666
195.354
187.042
178.73
170.419
162.107
153.795
145.484
137.172
128.86
120.549
112.237
103.925
95.6135
87.3018
78.9902
70.6786
62.367
54.0557
45.7448
37.435
29.1271
20.8244
12.5301
4.23537
836.085
820.797
814.308
803.043
795.404
785.9
777.832
769.037
760.813
752.305
744.024
735.633
727.331
718.987
710.679
702.355
694.044
685.727
677.416
669.102
660.79
652.478
644.166
635.854
627.542
619.231
610.919
602.607
594.295
585.984
577.672
569.36
561.049
552.737
544.425
536.114
527.802
519.49
511.179
502.867
494.555
486.244
477.932
469.62
461.309
452.997
444.685
436.374
428.062
419.75
411.439
403.127
394.815
386.504
378.192
369.88
361.569
353.257
344.945
336.634
328.322
320.01
311.699
303.387
295.075
286.764
278.452
270.14
261.828
253.517
245.205
236.893
228.582
220.27
211.958
203.647
195.335
187.023
178.712
170.4
162.088
153.777
145.465
137.153
128.841
120.53
112.218
103.906
95.5946
87.2829
78.9713
70.6597
62.3481
54.0368
45.7259
37.4161
29.1083
20.8054
12.5113
4.21678
836.099
820.764
814.284
803.021
795.381
785.879
777.81
769.016
760.791
752.284
744.002
735.611
727.31
718.966
710.658
702.333
694.022
685.705
677.394
669.08
660.769
652.456
644.144
635.832
627.521
619.209
610.897
602.585
594.274
585.962
577.65
569.339
561.027
552.715
544.404
536.092
527.78
519.469
511.157
502.845
494.534
486.222
477.91
469.599
461.287
452.975
444.664
436.352
428.04
419.729
411.417
403.105
394.794
386.482
378.17
369.859
361.547
353.235
344.924
336.612
328.3
319.989
311.677
303.365
295.054
286.742
278.43
270.119
261.807
253.495
245.184
236.872
228.56
220.248
211.937
203.625
195.313
187.002
178.69
170.378
162.067
153.755
145.443
137.132
128.82
120.508
112.196
103.885
95.573
87.2614
78.9497
70.6381
62.3265
54.0152
45.7043
37.3945
29.0867
20.7837
12.4898
4.19558
836.115
820.726
814.258
802.997
795.356
785.854
777.785
768.992
760.766
752.259
743.978
735.587
727.286
718.942
710.633
702.309
693.998
685.681
677.37
669.056
660.744
652.432
644.12
635.808
627.496
619.185
610.873
602.561
594.25
585.938
577.626
569.314
561.003
552.691
544.379
536.068
527.756
519.444
511.133
502.821
494.509
486.198
477.886
469.574
461.263
452.951
444.639
436.328
428.016
419.704
411.393
403.081
394.769
386.458
378.146
369.834
361.523
353.211
344.899
336.588
328.276
319.964
311.653
303.341
295.029
286.718
278.406
270.094
261.783
253.471
245.159
236.848
228.536
220.224
211.912
203.601
195.289
186.977
178.666
170.354
162.042
153.731
145.419
137.107
128.796
120.484
112.172
103.86
95.5488
87.2371
78.9254
70.6138
62.3022
53.991
45.68
37.3703
29.0625
20.7593
12.4656
4.17179
836.132
820.684
814.228
802.97
795.327
785.828
777.757
768.965
760.739
752.232
743.951
735.56
727.258
718.915
710.606
702.282
693.971
685.654
677.343
669.029
660.717
652.405
644.093
635.781
627.469
619.158
610.846
602.534
594.223
585.911
577.599
569.287
560.976
552.664
544.352
536.041
527.729
519.417
511.106
502.794
494.482
486.171
477.859
469.547
461.236
452.924
444.612
436.301
427.989
419.677
411.366
403.054
394.742
386.431
378.119
369.807
361.496
353.184
344.872
336.561
328.249
319.937
311.626
303.314
295.002
286.691
278.379
270.067
261.756
253.444
245.132
236.821
228.509
220.197
211.886
203.574
195.262
186.95
178.639
170.327
162.015
153.704
145.392
137.08
128.769
120.457
112.145
103.833
95.5218
87.2101
78.8984
70.5868
62.2752
53.964
45.653
37.3433
29.0355
20.7323
12.4388
4.14543
836.152
820.637
814.196
802.94
795.296
785.798
777.727
768.935
760.709
752.203
743.921
735.53
727.229
718.885
710.577
702.252
693.941
685.624
677.313
668.999
660.688
652.375
644.064
635.752
627.44
619.128
610.816
602.505
594.193
585.881
577.57
569.258
560.946
552.634
544.323
536.011
527.699
519.388
511.076
502.764
494.453
486.141
477.829
469.518
461.206
452.894
444.583
436.271
427.959
419.648
411.336
403.024
394.713
386.401
378.089
369.778
361.466
353.154
344.843
336.531
328.219
319.908
311.596
303.284
294.973
286.661
278.349
270.038
261.726
253.414
245.103
236.791
228.479
220.168
211.856
203.544
195.232
186.921
178.609
170.297
161.986
153.674
145.362
137.051
128.739
120.427
112.116
103.804
95.4921
87.1804
78.8687
70.5571
62.2456
53.9343
45.6234
37.3136
29.0059
20.7025
12.4093
4.11654
836.174
820.584
814.16
802.907
795.262
785.766
777.694
768.903
760.676
752.17
743.888
735.498
727.196
718.853
710.544
702.22
693.909
685.592
677.281
668.967
660.655
652.343
644.031
635.719
627.408
619.096
610.784
602.472
594.161
585.849
577.537
569.226
560.914
552.602
544.291
535.979
527.667
519.355
511.044
502.732
494.42
486.109
477.797
469.485
461.174
452.862
444.55
436.239
427.927
419.615
411.304
402.992
394.68
386.369
378.057
369.745
361.434
353.122
344.81
336.499
328.187
319.875
311.564
303.252
294.94
286.629
278.317
270.005
261.694
253.382
245.07
236.759
228.447
220.135
211.824
203.512
195.2
186.888
178.577
170.265
161.953
153.642
145.33
137.018
128.707
120.395
112.083
103.772
95.4598
87.1481
78.8365
70.5249
62.2133
53.902
45.5911
37.2813
28.9737
20.6702
12.3772
4.08521
836.198
820.527
814.122
802.872
795.225
785.731
777.658
768.868
760.641
752.136
743.854
735.463
727.162
718.818
710.51
702.185
693.874
685.558
677.246
668.932
660.621
652.308
643.997
635.685
627.373
619.061
610.749
602.438
594.126
585.814
577.503
569.191
560.879
552.568
544.256
535.944
527.632
519.321
511.009
502.697
494.386
486.074
477.762
469.451
461.139
452.827
444.516
436.204
427.892
419.581
411.269
402.957
394.646
386.334
378.022
369.711
361.399
353.087
344.776
336.464
328.152
319.841
311.529
303.217
294.906
286.594
278.282
269.971
261.659
253.347
245.036
236.724
228.412
220.101
211.789
203.477
195.166
186.854
178.542
170.23
161.919
153.607
145.295
136.984
128.672
120.36
112.049
103.737
95.4252
87.1135
78.8018
70.4902
62.1786
53.8674
45.5564
37.2467
28.939
20.6354
12.3427
4.05166
836.228
820.465
814.082
802.834
795.186
785.693
777.62
768.831
760.604
752.099
743.817
735.426
727.125
718.781
710.473
702.148
693.838
685.521
677.21
668.896
660.584
652.272
643.96
635.648
627.336
619.024
610.713
602.401
594.089
585.778
577.466
569.154
560.843
552.531
544.219
535.907
527.596
519.284
510.972
502.661
494.349
486.037
477.726
469.414
461.102
452.791
444.479
436.167
427.856
419.544
411.232
402.921
394.609
386.297
377.986
369.674
361.362
353.051
344.739
336.427
328.116
319.804
311.492
303.181
294.869
286.557
278.246
269.934
261.622
253.311
244.999
236.687
228.376
220.064
211.752
203.441
195.129
186.817
178.505
170.194
161.882
153.57
145.259
136.947
128.635
120.324
112.012
103.7
95.3885
87.0768
78.7651
70.4535
62.1419
53.8307
45.5198
37.21
28.9024
20.5987
12.3062
4.01615
836.257
820.397
814.039
802.793
795.145
785.654
777.581
768.792
760.565
752.06
743.778
735.388
727.086
718.743
710.435
702.11
693.799
685.482
677.171
668.857
660.546
652.233
643.921
635.609
627.298
618.986
610.674
602.362
594.051
585.739
577.427
569.116
560.804
552.492
544.181
535.869
527.557
519.246
510.934
502.622
494.311
485.999
477.687
469.376
461.064
452.752
444.441
436.129
427.817
419.506
411.194
402.882
394.571
386.259
377.947
369.636
361.324
353.012
344.701
336.389
328.077
319.766
311.454
303.142
294.831
286.519
278.207
269.896
261.584
253.272
244.96
236.649
228.337
220.025
211.714
203.402
195.09
186.779
178.467
170.155
161.844
153.532
145.22
136.908
128.597
120.285
111.973
103.662
95.35
87.0383
78.7266
70.415
62.1035
53.7922
45.4813
37.1715
28.8639
20.5602
12.2679
3.97911
836.289
820.329
813.997
802.755
795.106
785.617
777.543
768.756
760.528
752.024
743.742
735.352
727.05
718.706
710.398
702.073
693.763
685.446
677.135
668.821
660.509
652.197
643.885
635.573
627.261
618.949
610.638
602.326
594.014
585.703
577.391
569.079
560.768
552.456
544.144
535.833
527.521
519.209
510.898
502.586
494.274
485.963
477.651
469.339
461.027
452.716
444.404
436.093
427.781
419.469
411.158
402.846
394.534
386.223
377.911
369.599
361.288
352.976
344.664
336.352
328.041
319.729
311.417
303.106
294.794
286.482
278.171
269.859
261.547
253.236
244.924
236.612
228.301
219.989
211.677
203.366
195.054
186.742
178.431
170.119
161.807
153.495
145.184
136.872
128.56
120.249