/*--------------------------------*- C++ -*----------------------------------*\
| =========                 |                                                 |
| \\      /  F ield         | OpenFOAM: The Open Source CFD Toolbox           |
|  \\    /   O peration     | Version:  v1906                                 |
|   \\  /    A nd           | Web:      www.OpenFOAM.com                      |
|    \\/     M anipulation  |                                                 |
\*---------------------------------------------------------------------------*/
FoamFile
{
    version     2.0;
    format      ascii;
    class       volScalarField;
    location    "2";
    object      pB;
}
// * * * * * * * * * * * * * * * * * * * * * * * * * * * * * * * * * * * * * //

dimensions      [1 1 -3 0 0 -1 0];


internalField   nonuniform List<scalar> 
4000
(
28.3304
65.1175
85.1993
92.5373
92.2861
87.0646
79.3186
70.4554
61.4433
52.8185
44.8882
37.7881
31.5564
26.1676
21.5624
17.6636
14.3883
11.6545
9.38486
7.50936
5.96571
4.69965
3.66444
2.82032
2.1337
1.57645
1.1251
0.760253
0.465805
0.228607
0.0377884
-0.115461
-0.238374
-0.336834
-0.415585
-0.47849
-0.528705
-0.568691
-0.600541
-0.625841
-0.64595
-0.661886
-0.67451
-0.684502
-0.692402
-0.698628
-0.703556
-0.707408
-0.710461
-0.712841
-0.714719
-0.716179
-0.717322
-0.718202
-0.718892
-0.719407
-0.719819
-0.720112
-0.720345
-0.7205
-0.720621
-0.72069
-0.720735
-0.720735
-0.720724
-0.720668
-0.7206
-0.72048
-0.720332
-0.720116
-0.71984
-0.719463
-0.718976
-0.718315
-0.717453
-0.716292
-0.714762
-0.712716
-0.710015
-0.706426
-0.701693
-0.695445
-0.687253
-0.676538
-0.662628
-0.644671
-0.621707
-0.59263
-0.556319
-0.511735
-0.458258
-0.396128
-0.327328
-0.256813
-0.194485
-0.157095
-0.16804
-0.24644
-0.364299
-0.362243
30.4857
65.1363
84.4651
91.7318
91.5094
86.3844
78.7334
69.9615
61.0299
52.4762
44.6074
37.5605
31.3741
26.0237
21.4507
17.5789
14.3261
11.6107
9.35631
7.49329
5.95982
4.70203
3.67354
2.83484
2.1526
1.59887
1.15034
0.787754
0.495112
0.259354
0.0696843
-0.0826591
-0.204848
-0.302737
-0.38104
-0.443588
-0.493524
-0.53329
-0.56497
-0.590134
-0.610135
-0.625992
-0.63855
-0.648492
-0.656354
-0.662548
-0.667454
-0.671288
-0.674327
-0.676696
-0.678565
-0.68002
-0.681157
-0.682033
-0.68272
-0.683232
-0.683642
-0.683934
-0.684166
-0.684322
-0.684441
-0.68451
-0.684555
-0.684555
-0.684545
-0.684489
-0.684421
-0.684302
-0.684154
-0.683941
-0.683666
-0.683291
-0.682807
-0.682149
-0.681291
-0.680136
-0.678615
-0.67658
-0.673893
-0.670324
-0.665617
-0.659405
-0.651261
-0.64061
-0.626785
-0.608941
-0.586127
-0.557249
-0.5212
-0.476959
-0.423927
-0.362359
-0.294236
-0.224434
-0.162589
-0.124641
-0.132006
-0.1996
-0.296969
-0.289108
31.802
65.0088
83.4074
90.4975
90.2769
85.268
77.7511
69.1172
60.3132
51.8759
44.1102
37.1537
31.0454
25.7618
21.2455
17.4213
14.2083
11.526
9.29893
7.45838
5.94332
4.70056
3.68429
2.8555
2.18126
1.63399
1.19066
0.832251
0.542954
0.309871
0.12234
-0.0283077
-0.149143
-0.24596
-0.323416
-0.385291
-0.434697
-0.474046
-0.505397
-0.530305
-0.550099
-0.565801
-0.578233
-0.588078
-0.595866
-0.601999
-0.606859
-0.610658
-0.613668
-0.616018
-0.617869
-0.619311
-0.620437
-0.621305
-0.621987
-0.622493
-0.622899
-0.623189
-0.623419
-0.623576
-0.623692
-0.623762
-0.623806
-0.623806
-0.623796
-0.623741
-0.623674
-0.623557
-0.623409
-0.623199
-0.622927
-0.622556
-0.622077
-0.621426
-0.620578
-0.619434
-0.617929
-0.615917
-0.613258
-0.609728
-0.605073
-0.59893
-0.590878
-0.580348
-0.566683
-0.54905
-0.526511
-0.497992
-0.462405
-0.418758
-0.36647
-0.305807
-0.23871
-0.169884
-0.108464
-0.0690753
-0.0703603
-0.122121
-0.194235
-0.178372
31.8998
64.3804
81.8652
88.6985
88.4647
83.5985
76.264
67.8237
59.2038
50.9363
43.3228
36.5003
30.5085
25.3249
20.8935
17.141
13.988
11.3556
9.16979
7.36325
5.8761
4.65614
3.65844
2.84473
2.18271
1.64529
1.20991
0.857877
0.573706
0.344726
0.160477
0.0124425
-0.106309
-0.201472
-0.277616
-0.338451
-0.387035
-0.425736
-0.456576
-0.481082
-0.500557
-0.516013
-0.528249
-0.537942
-0.545611
-0.551651
-0.556438
-0.560182
-0.563146
-0.565463
-0.567285
-0.568708
-0.569817
-0.570672
-0.571344
-0.571844
-0.572243
-0.57253
-0.572756
-0.572912
-0.573026
-0.573095
-0.573138
-0.573138
-0.573128
-0.573075
-0.573009
-0.572895
-0.572749
-0.572544
-0.572276
-0.571911
-0.57144
-0.5708
-0.569965
-0.568841
-0.56736
-0.565383
-0.562769
-0.5593
-0.554724
-0.548689
-0.540778
-0.530437
-0.517017
-0.499706
-0.477584
-0.449606
-0.414711
-0.371942
-0.32074
-0.261372
-0.1957
-0.128151
-0.0671153
-0.0254099
-0.0182018
-0.049718
-0.0925453
-0.0644554
31.0972
63.1281
79.8089
86.3452
86.0929
81.3929
74.2851
66.0908
57.7091
49.6632
42.2495
35.6038
29.7658
24.7146
20.3959
16.7385
13.6651
11.0991
8.96829
7.20707
5.75713
4.56758
3.5947
2.80114
2.15546
1.63125
1.20651
0.863049
0.585763
0.362301
0.182469
0.0379569
-0.0779844
-0.170911
-0.245282
-0.304708
-0.352177
-0.389997
-0.420142
-0.444101
-0.463142
-0.478261
-0.49023
-0.499714
-0.507219
-0.513131
-0.517817
-0.521485
-0.524387
-0.526657
-0.528441
-0.529836
-0.530921
-0.531758
-0.532417
-0.532907
-0.533298
-0.53358
-0.533801
-0.533956
-0.534067
-0.534135
-0.534176
-0.534177
-0.534166
-0.534115
-0.534049
-0.533939
-0.533796
-0.533596
-0.533334
-0.532979
-0.532518
-0.531893
-0.531076
-0.529979
-0.528531
-0.526601
-0.524047
-0.520661
-0.516194
-0.510303
-0.502584
-0.492494
-0.479405
-0.462524
-0.440958
-0.413697
-0.379717
-0.338097
-0.288304
-0.230596
-0.166714
-0.100711
-0.0400353
0.00465463
0.0220199
0.0131984
0.00143265
0.0413173
29.7589
61.2611
77.2331
83.4598
83.1917
78.6799
71.8398
63.9406
55.8488
48.0743
40.9063
34.4785
28.8307
23.9432
19.7641
16.2246
13.25
10.7664
8.70379
6.99888
5.59519
4.4435
3.5015
2.73306
2.10774
1.60002
1.18858
0.855829
0.587155
0.3706
0.196302
0.0562093
-0.0562042
-0.14632
-0.218458
-0.27611
-0.322171
-0.358879
-0.388144
-0.41141
-0.429902
-0.444592
-0.456222
-0.465439
-0.472735
-0.478483
-0.483041
-0.48661
-0.489433
-0.491643
-0.493377
-0.494736
-0.495791
-0.496605
-0.497247
-0.497723
-0.498103
-0.498379
-0.498594
-0.498746
-0.498853
-0.49892
-0.498959
-0.49896
-0.498949
-0.4989
-0.498836
-0.49873
-0.498591
-0.498398
-0.498143
-0.497799
-0.497351
-0.496745
-0.495952
-0.494887
-0.493481
-0.49161
-0.489133
-0.48585
-0.481519
-0.47581
-0.46833
-0.458556
-0.445878
-0.429533
-0.408659
-0.382286
-0.349432
-0.30922
-0.261143
-0.205433
-0.143682
-0.0794877
-0.0192166
0.0288297
0.0572061
0.0718848
0.0911284
0.138575
28.1072
58.835
74.1469
80.0634
79.7871
75.4851
68.9509
61.393
53.6399
46.1841
39.3059
33.1357
27.7129
23.0194
19.0057
15.6059
12.7487
10.3628
8.38133
6.74333
5.39464
4.28799
3.38274
2.64422
2.04317
1.55511
1.15955
0.839599
0.581218
0.372926
0.205252
0.0704564
-0.0377262
-0.124467
-0.19392
-0.249436
-0.293802
-0.329168
-0.357368
-0.379795
-0.397622
-0.41179
-0.423009
-0.431901
-0.438944
-0.444491
-0.448892
-0.45234
-0.455067
-0.457202
-0.458877
-0.460189
-0.461208
-0.461994
-0.462614
-0.463074
-0.463442
-0.463709
-0.463916
-0.464064
-0.464168
-0.464231
-0.464269
-0.46427
-0.464259
-0.464212
-0.46415
-0.464048
-0.463914
-0.463728
-0.463483
-0.463151
-0.46272
-0.462135
-0.461371
-0.460345
-0.458991
-0.457189
-0.454805
-0.451645
-0.447478
-0.441986
-0.434791
-0.425394
-0.413207
-0.397501
-0.37745
-0.352129
-0.320605
-0.282047
-0.235974
-0.182581
-0.123283
-0.0611695
-0.00144554
0.0500014
0.0894714
0.127109
0.175538
0.225118
26.2692
55.9203
70.5711
76.1786
75.9044
71.8334
65.6404
58.4669
51.0985
44.0064
37.4598
31.5849
26.4204
21.9498
18.1262
14.8873
12.165
9.89167
8.00354
6.44262
5.15731
4.10257
3.23972
2.53571
1.9627
1.49734
1.12014
0.814999
0.568535
0.369815
0.209821
0.0811734
-0.0220947
-0.104909
-0.171237
-0.224265
-0.266653
-0.300449
-0.327404
-0.348847
-0.365894
-0.379447
-0.390182
-0.398692
-0.405435
-0.410747
-0.414962
-0.418266
-0.420879
-0.422926
-0.42453
-0.425788
-0.426765
-0.427516
-0.428111
-0.428551
-0.428903
-0.429159
-0.429358
-0.429501
-0.429599
-0.429659
-0.429696
-0.429695
-0.429685
-0.42964
-0.429581
-0.429484
-0.429355
-0.429178
-0.428943
-0.428626
-0.428214
-0.427654
-0.426924
-0.425943
-0.424649
-0.422928
-0.42065
-0.417634
-0.413656
-0.408415
-0.401552
-0.392589
-0.38097
-0.366
-0.346898
-0.322787
-0.292788
-0.256118
-0.212319
-0.161545
-0.105012
-0.0452712
0.0136544
0.0682215
0.118158
0.176979
0.251136
0.297877
24.3205
52.5895
66.5368
71.8319
71.5702
67.7507
61.9319
55.1828
48.242
41.5559
35.3804
29.8366
24.9619
20.7415
17.1316
14.0734
11.5028
9.35608
7.57298
6.0988
4.88483
3.88856
3.07347
2.40838
1.86697
1.42723
1.07075
0.782334
0.549339
0.361448
0.210148
0.0884669
-0.00922837
-0.0875872
-0.150363
-0.200561
-0.240696
-0.272702
-0.298236
-0.318554
-0.334708
-0.347555
-0.357736
-0.365805
-0.372205
-0.377245
-0.381247
-0.384384
-0.386866
-0.38881
-0.390332
-0.391526
-0.392455
-0.393167
-0.393731
-0.394148
-0.394483
-0.394725
-0.394914
-0.395049
-0.395143
-0.395199
-0.395234
-0.395232
-0.395223
-0.395179
-0.395123
-0.395031
-0.394909
-0.394741
-0.394519
-0.394217
-0.393827
-0.393296
-0.392604
-0.391673
-0.390448
-0.388818
-0.386662
-0.383807
-0.380045
-0.375087
-0.368599
-0.360127
-0.349148
-0.335008
-0.316973
-0.294222
-0.26593
-0.231366
-0.190094
-0.142223
-0.0887594
-0.031713
0.0260443
0.0831335
0.142259
0.219391
0.314606
0.354733
22.3055
48.9102
62.0815
67.0534
66.8135
63.2649
57.8504
51.5629
45.0896
38.8487
33.0814
27.9021
23.3468
19.4025
16.0283
13.1696
10.7666
8.75965
7.09258
5.71425
4.57913
3.64751
2.88525
2.2632
1.75678
1.34542
1.0119
0.742018
0.523965
0.348095
0.206453
0.092518
0.00102323
-0.0723739
-0.131191
-0.178231
-0.21585
-0.245855
-0.269799
-0.288856
-0.304009
-0.316064
-0.325621
-0.333196
-0.339207
-0.34394
-0.347701
-0.350649
-0.352982
-0.354809
-0.35624
-0.357361
-0.358234
-0.358901
-0.359431
-0.359822
-0.360136
-0.360363
-0.360541
-0.360667
-0.360755
-0.360806
-0.360838
-0.360835
-0.360827
-0.360785
-0.360732
-0.360645
-0.360531
-0.360372
-0.360164
-0.35988
-0.359514
-0.359014
-0.358365
-0.357491
-0.356342
-0.354812
-0.352792
-0.350117
-0.346593
-0.341951
-0.335877
-0.327949
-0.31768
-0.304458
-0.287602
-0.266349
-0.239933
-0.207676
-0.169168
-0.124465
-0.0743704
-0.0203702
0.0357307
0.0944511
0.16093
0.252648
0.36354
0.394703
20.2495
44.9418
57.2464
61.8766
61.6652
58.4053
53.423
47.631
41.6617
35.9026
30.5777
25.794
21.5858
17.9415
14.8236
12.1819
9.96114
8.10635
6.56557
5.29158
4.24233
3.38113
2.67642
2.10129
1.63302
1.25261
0.944146
0.694511
0.492785
0.330057
0.19898
0.0935237
0.00882159
-0.0591364
-0.113608
-0.157181
-0.192036
-0.21984
-0.242033
-0.2597
-0.273751
-0.28493
-0.293798
-0.300824
-0.306405
-0.310798
-0.314291
-0.317028
-0.319196
-0.320892
-0.32222
-0.32326
-0.324071
-0.324688
-0.32518
-0.32554
-0.325832
-0.326042
-0.326206
-0.326322
-0.326403
-0.326449
-0.326479
-0.326475
-0.326467
-0.326426
-0.326377
-0.326295
-0.326189
-0.326041
-0.325848
-0.325583
-0.325243
-0.324778
-0.324175
-0.323363
-0.322297
-0.320879
-0.319007
-0.316528
-0.313265
-0.308967
-0.303347
-0.296013
-0.286517
-0.274294
-0.25872
-0.239092
-0.214708
-0.184944
-0.149415
-0.108132
-0.0616993
-0.0111253
0.0427275
0.101944
0.173502
0.275506
0.396391
0.417624
18.1664
40.735
52.0739
56.3372
56.158
53.2029
48.678
43.4122
37.9804
32.7363
27.8852
23.5258
19.6901
16.3678
13.5253
11.1167
9.09177
7.40047
5.99544
4.83363
3.87673
3.09126
2.44848
1.92385
1.49666
1.14959
0.868121
0.640311
0.456193
0.307648
0.187979
0.0916841
0.0143264
-0.0477474
-0.0975143
-0.13733
-0.169187
-0.194603
-0.214893
-0.23105
-0.243901
-0.254127
-0.262243
-0.268673
-0.273782
-0.277804
-0.281003
-0.283509
-0.285495
-0.287048
-0.288263
-0.289214
-0.289956
-0.290518
-0.290968
-0.291295
-0.291561
-0.291752
-0.291901
-0.292006
-0.292079
-0.292119
-0.292146
-0.29214
-0.292133
-0.292094
-0.292048
-0.291972
-0.291874
-0.291737
-0.29156
-0.291316
-0.291004
-0.290577
-0.290024
-0.289279
-0.288303
-0.287004
-0.285292
-0.283026
-0.280044
-0.276118
-0.270987
-0.264293
-0.255628
-0.24448
-0.230282
-0.212395
-0.190184
-0.163082
-0.130733
-0.0931028
-0.0506196
-0.00387281
0.0470592
0.105456
0.17952
0.287181
0.412395
0.423923
16.0644
36.3327
46.606
50.4725
50.3266
47.6901
43.645
38.9333
34.0689
29.3699
25.0211
21.112
17.6717
14.6916
12.1417
9.9808
8.16409
6.64663
5.38596
4.34347
3.4848
2.77993
2.20306
1.7322
1.34876
1.03719
0.784498
0.579956
0.414621
0.281213
0.173724
0.0872173
0.0177111
-0.0380691
-0.0827995
-0.118591
-0.147234
-0.170088
-0.188336
-0.202871
-0.214432
-0.223633
-0.230939
-0.236726
-0.241327
-0.244947
-0.247829
-0.250086
-0.251873
-0.253272
-0.254364
-0.255218
-0.255886
-0.256389
-0.256792
-0.257084
-0.257321
-0.25749
-0.257622
-0.257715
-0.257779
-0.257813
-0.257837
-0.257829
-0.257822
-0.257786
-0.257743
-0.257673
-0.257583
-0.257459
-0.257298
-0.257076
-0.256794
-0.256407
-0.255907
-0.255235
-0.254354
-0.253184
-0.251642
-0.249602
-0.246921
-0.243392
-0.238781
-0.232769
-0.224989
-0.214984
-0.202247
-0.186206
-0.166297
-0.142012
-0.113022
-0.0792623
-0.0410056
0.00150204
0.0487888
0.104935
0.178768
0.287363
0.411504
0.414476
13.948
31.7709
40.8834
44.3206
44.2067
41.9005
38.3552
34.2219
29.9517
25.8244
22.0033
18.5676
15.5434
12.9235
10.6815
8.78154
7.1841
5.84974
4.74114
3.82437
3.06922
2.44929
1.94191
1.52774
1.19044
0.916343
0.694017
0.514041
0.368546
0.251132
0.15652
0.0803666
0.0191699
-0.0299468
-0.0693406
-0.100866
-0.1261
-0.146234
-0.162312
-0.175123
-0.185312
-0.193422
-0.199866
-0.204967
-0.209025
-0.212217
-0.214759
-0.216749
-0.218324
-0.219557
-0.220519
-0.221268
-0.221856
-0.222295
-0.222648
-0.222902
-0.223108
-0.223254
-0.223368
-0.223447
-0.223502
-0.223529
-0.223549
-0.22354
-0.223532
-0.223498
-0.223459
-0.223395
-0.223314
-0.223202
-0.223058
-0.22286
-0.222609
-0.222265
-0.221822
-0.221226
-0.220447
-0.219412
-0.21805
-0.21625
-0.213886
-0.210775
-0.206715
-0.201421
-0.194575
-0.185774
-0.174573
-0.160474
-0.142981
-0.121648
-0.0961804
-0.066489
-0.0327221
0.00513624
0.0480332
0.100456
0.171293
0.276207
0.394298
0.390505
11.8203
27.0802
34.945
37.9202
37.835
35.869
32.8404
29.3069
25.6541
22.1219
18.8507
15.9086
13.3186
11.0746
9.1541
7.52655
6.1581
5.01498
4.06523
3.27979
2.6328
2.10163
1.66688
1.31198
1.02293
0.788025
0.59747
0.443205
0.318481
0.217819
0.1367
0.0713989
0.0189166
-0.023209
-0.0570004
-0.0840438
-0.105695
-0.12297
-0.136766
-0.147761
-0.156506
-0.163466
-0.168999
-0.173377
-0.176862
-0.179601
-0.181784
-0.18349
-0.184841
-0.185899
-0.186721
-0.18736
-0.187862
-0.188234
-0.188533
-0.188746
-0.18892
-0.189041
-0.189135
-0.1892
-0.189244
-0.189264
-0.18928
-0.189269
-0.189261
-0.189229
-0.189193
-0.189135
-0.189063
-0.188965
-0.188839
-0.188666
-0.188447
-0.188147
-0.187763
-0.187247
-0.186574
-0.185682
-0.184509
-0.18296
-0.180927
-0.178256
-0.174771
-0.170229
-0.164358
-0.156814
-0.147217
-0.135141
-0.120164
-0.101903
-0.0801015
-0.0546562
-0.0256228
0.00719207
0.0449681
0.0922244
0.157394
0.254299
0.361908
0.353505
9.68342
22.2865
28.8279
31.3101
31.2494
29.6312
27.1338
24.2181
21.2024
18.2852
15.5826
13.1516
11.0111
9.15646
7.56913
6.22385
5.09268
4.14776
3.36265
2.71336
2.1785
1.73937
1.37994
1.08651
0.847513
0.653282
0.495704
0.36813
0.264979
0.181719
0.114621
0.0606023
0.0171831
-0.0176692
-0.0456293
-0.0680053
-0.0859237
-0.100218
-0.111634
-0.120735
-0.127972
-0.133731
-0.138311
-0.141934
-0.144819
-0.147084
-0.148889
-0.1503
-0.151415
-0.152288
-0.152964
-0.153488
-0.153899
-0.154201
-0.154444
-0.154614
-0.154752
-0.154848
-0.154921
-0.154971
-0.155003
-0.155016
-0.155027
-0.155014
-0.155005
-0.154975
-0.154942
-0.154891
-0.154829
-0.154743
-0.154636
-0.154488
-0.154304
-0.154051
-0.153728
-0.153295
-0.152732
-0.151988
-0.151011
-0.149723
-0.148035
-0.145819
-0.142931
-0.139169
-0.134311
-0.128069
-0.120133
-0.110151
-0.0977747
-0.0826883
-0.0646751
-0.043631
-0.0195498
0.00785759
0.039828
0.0805696
0.137612
0.222611
0.315927
0.305177
7.53916
17.4127
22.5672
24.5289
24.488
23.2237
21.2692
18.986
16.6236
14.3376
12.2193
10.3136
8.63544
7.18123
5.93658
4.8817
3.99468
3.2537
2.63803
2.12886
1.70941
1.36502
1.08313
0.852999
0.665551
0.51321
0.389606
0.289537
0.20862
0.143303
0.0906637
0.0482833
0.0142166
-0.0131279
-0.0350665
-0.0526207
-0.0666813
-0.0778952
-0.0868491
-0.0939896
-0.0996661
-0.104182
-0.107775
-0.110614
-0.112876
-0.11465
-0.116064
-0.117167
-0.118037
-0.118717
-0.119242
-0.119646
-0.119963
-0.120191
-0.120376
-0.120501
-0.120603
-0.120671
-0.120722
-0.120756
-0.120777
-0.120782
-0.120787
-0.120773
-0.120763
-0.120735
-0.120705
-0.120661
-0.120607
-0.120536
-0.120447
-0.120326
-0.120176
-0.119971
-0.119711
-0.119364
-0.118916
-0.118323
-0.117549
-0.11653
-0.115198
-0.113451
-0.111179
-0.10822
-0.104403
-0.0995019
-0.0932738
-0.0854432
-0.0757385
-0.0639107
-0.0497878
-0.0332752
-0.0143344
0.00734572
0.032903
0.0659378
0.112702
0.182454
0.258325
0.247386
5.38919
12.4789
16.1967
17.615
17.5895
16.6834
15.2809
13.6418
11.9453
10.3033
8.78148
7.41213
6.20624
5.16121
4.26674
3.50862
2.87113
2.3386
1.89611
1.53016
1.2287
0.981182
0.778578
0.61317
0.478442
0.368948
0.2801
0.208175
0.150012
0.103061
0.0652257
0.0347638
0.0102776
-0.00937448
-0.0251422
-0.0377528
-0.047857
-0.0559108
-0.0623391
-0.0674667
-0.071541
-0.0747803
-0.0773588
-0.0793921
-0.0810145
-0.0822816
-0.0832933
-0.0840792
-0.0846964
-0.085179
-0.0855478
-0.0858273
-0.0860478
-0.0862003
-0.0863243
-0.0864033
-0.0864676
-0.0865077
-0.0865354
-0.0865523
-0.0865612
-0.0865578
-0.086558
-0.0865414
-0.0865301
-0.086504
-0.0864775
-0.0864398
-0.0863956
-0.086338
-0.0862692
-0.0861745
-0.0860607
-0.0859043
-0.0857098
-0.0854506
-0.0851184
-0.0846823
-0.0841152
-0.0833713
-0.082404
-0.0811373
-0.0794943
-0.0773578
-0.0746058
-0.0710744
-0.0665911
-0.0609573
-0.0539788
-0.0454754
-0.0353231
-0.0234459
-0.00979787
0.00589194
0.0245331
0.048877
0.0836016
0.135415
0.191379
0.182116
3.23512
7.5036
9.74868
10.6067
10.5929
10.0481
9.20404
8.21725
7.19565
6.2067
5.29005
4.46513
3.73863
3.10902
2.5701
2.11332
1.72922
1.40836
1.14176
0.921268
0.73964
0.590511
0.468446
0.368794
0.287626
0.221669
0.168142
0.124818
0.0897839
0.0615048
0.0387204
0.0203784
0.0056368
-0.00618979
-0.0156789
-0.0232583
-0.029335
-0.0341713
-0.038028
-0.0411049
-0.0435467
-0.0454848
-0.0470291
-0.0482409
-0.0492105
-0.0499608
-0.0505619
-0.0510241
-0.0513836
-0.0516637
-0.0518734
-0.0520263
-0.0521477
-0.0522226
-0.052285
-0.0523166
-0.0523425
-0.0523535
-0.052358
-0.0523574
-0.0523541
-0.052342
-0.0523367
-0.0523176
-0.052305
-0.0522805
-0.0522573
-0.0522261
-0.0521915
-0.0521479
-0.0520988
-0.0520311
-0.0519536
-0.0518468
-0.0517185
-0.0515485
-0.0513351
-0.0510577
-0.0507017
-0.0502378
-0.0496408
-0.0488622
-0.047859
-0.0465576
-0.0448875
-0.0427474
-0.0400353
-0.0366308
-0.0324177
-0.0272862
-0.0211623
-0.0139959
-0.00575287
0.00375072
0.0150997
0.0300188
0.0513995
0.0833008
0.117595
0.111444
1.07859
2.50378
3.25454
3.54172
3.53742
3.35566
3.07383
2.74425
2.40299
2.07262
1.76636
1.49068
1.24788
1.03745
0.857311
0.704638
0.576243
0.46901
0.379907
0.306227
0.245547
0.195723
0.154953
0.121676
0.0945763
0.0725713
0.0547028
0.0402576
0.0285781
0.0191547
0.0115713
0.00547045
0.0005724
-0.00334819
-0.00649386
-0.00898937
-0.0109955
-0.0125797
-0.0138371
-0.0148405
-0.0156314
-0.0162537
-0.0167517
-0.0171322
-0.0174416
-0.0176687
-0.0178541
-0.0179887
-0.0180875
-0.0181623
-0.0182109
-0.0182356
-0.0182567
-0.018253
-0.0182532
-0.0182366
-0.0182237
-0.0182051
-0.0181862
-0.0181679
-0.0181521
-0.0181311
-0.01812
-0.0180982
-0.0180844
-0.0180614
-0.0180415
-0.0180167
-0.0179917
-0.0179621
-0.0179327
-0.0178922
-0.0178514
-0.0177947
-0.0177332
-0.0176534
-0.01756
-0.017443
-0.0173002
-0.0171192
-0.0168962
-0.0166106
-0.0162535
-0.0157951
-0.0152171
-0.014481
-0.0135561
-0.0124004
-0.0109765
-0.00924541
-0.00718482
-0.00477507
-0.00200574
0.00119084
0.0050152
0.0100565
0.0172919
0.0280788
0.0396455
0.0375073
-1.07876
-2.50413
-3.25491
-3.5421
-3.53772
-3.3559
-3.07419
-2.7449
-2.40401
-2.07398
-1.7681
-1.49292
-1.2506
-1.0406
-0.860869
-0.708522
-0.58043
-0.473388
-0.384447
-0.310868
-0.250228
-0.20044
-0.159663
-0.126356
-0.0992191
-0.0771341
-0.0592293
-0.0447031
-0.0329534
-0.0234593
-0.0157918
-0.00961126
-0.00463273
-0.000620262
0.00259887
0.0052047
0.00728351
0.00896298
0.0103137
0.0113916
0.0122579
0.0129562
0.0135084
0.0139627
0.0143159
0.0146141
0.0148461
0.0150403
0.0152033
0.0153348
0.0154478
0.0155516
0.0156312
0.015714
0.015776
0.015841
0.0158927
0.015941
0.0159834
0.0160196
0.0160479
0.0160779
0.0160949
0.0161197
0.0161348
0.0161564
0.016173
0.0161914
0.0162069
0.0162226
0.0162321
0.0162455
0.0162495
0.0162561
0.0162504
0.0162399
0.0162127
0.0161688
0.0160975
0.0159946
0.0158421
0.0156332
0.0153419
0.0149546
0.0144372
0.0137649
0.0128971
0.0117975
0.0104243
0.00874548
0.006731
0.00436873
0.00164122
-0.00150999
-0.00528893
-0.0102784
-0.0174588
-0.0281903
-0.0397042
-0.0375223
-3.23529
-7.50394
-9.74905
-10.6071
-10.5932
-10.0484
-9.20441
-8.21789
-7.19667
-6.20807
-5.29179
-4.46738
-3.74136
-3.11218
-2.57366
-2.11722
-1.73341
-1.41274
-1.1463
-0.925911
-0.744321
-0.595228
-0.473155
-0.37347
-0.292266
-0.226229
-0.172664
-0.129259
-0.0941555
-0.0658052
-0.0429367
-0.024516
-0.00969422
0.00222463
0.0117864
0.0194754
0.0256247
0.0305563
0.0345053
0.0376569
0.0401743
0.0421883
0.0437866
0.0450726
0.0460856
0.0469071
0.0475549
0.0480766
0.0485
0.0488371
0.0491109
0.0493425
0.0495221
0.0496836
0.0498074
0.0499206
0.0500109
0.0500887
0.0501543
0.0502083
0.050249
0.0502881
0.050311
0.0503391
0.0503554
0.0503759
0.0503892
0.0504013
0.0504071
0.0504092
0.0503991
0.0503855
0.0503528
0.0503095
0.0502369
0.0501362
0.0499888
0.0497845
0.0494995
0.0491135
0.0485867
0.0478847
0.046947
0.0457167
0.0441069
0.0420304
0.0393752
0.0360268
0.0318644
0.0267851
0.0207072
0.0135883
0.00538707
-0.00407101
-0.0153746
-0.0302418
-0.0515675
-0.0834134
-0.117655
-0.11146
-5.38935
-12.4793
-16.1971
-17.6154
-17.5898
-16.6837
-15.2813
-13.6425
-11.9464
-10.3047
-8.78324
-7.4144
-6.209
-5.16439
-4.27032
-3.51253
-2.87533
-2.34299
-1.90066
-1.53481
-1.23338
-0.985898
-0.783284
-0.61784
-0.483074
-0.373502
-0.284616
-0.212607
-0.154376
-0.107354
-0.0694337
-0.0388949
-0.0143292
0.00541575
0.0212548
0.0339734
0.0441501
0.0522991
0.0588179
0.0640203
0.0681708
0.0714856
0.074118
0.0762263
0.0778913
0.0792297
0.0802883
0.0811335
0.0818137
0.082354
0.0827864
0.083144
0.0834222
0.0836613
0.0838459
0.0840066
0.0841348
0.0842416
0.0843299
0.0844014
0.0844543
0.0845026
0.0845315
0.0845629
0.0845805
0.0845998
0.0846098
0.0846158
0.0846121
0.0846007
0.0845713
0.0845312
0.0844621
0.0843695
0.0842305
0.0840406
0.0837741
0.0834107
0.0829141
0.0822476
0.08135
0.0801596
0.0785814
0.0765158
0.0738238
0.0703559
0.065929
0.0603513
0.0534233
0.044972
0.0348654
0.0230357
0.00942953
-0.00621452
-0.0248102
-0.0491022
-0.0837718
-0.135529
-0.191439
-0.182132
-7.53932
-17.413
-22.5675
-24.5292
-24.4883
-23.2239
-21.2696
-18.9867
-16.6247
-14.339
-12.2211
-10.3159
-8.63822
-7.18443
-5.94018
-4.88562
-3.9989
-3.2581
-2.64259
-2.13351
-1.71409
-1.36974
-1.08784
-0.857661
-0.670175
-0.517756
-0.39411
-0.293956
-0.212973
-0.147583
-0.0948596
-0.0524045
-0.0182594
0.00917843
0.0311866
0.0488466
0.0629794
0.0742883
0.0833301
0.0905458
0.096299
0.10089
0.104537
0.107452
0.109756
0.111601
0.113062
0.114224
0.115155
0.115895
0.116482
0.116963
0.117337
0.117652
0.117896
0.118103
0.118268
0.118403
0.118514
0.118602
0.118667
0.118724
0.118759
0.118794
0.118813
0.118831
0.118838
0.118838
0.118825
0.1188
0.118752
0.118686
0.118581
0.11844
0.118236
0.117958
0.117574
0.117054
0.116349
0.115407
0.114144
0.112473
0.110265
0.107377
0.103619
0.098781
0.0926088
0.0848342
0.0751799
0.0634038
0.0493263
0.0328613
0.0139624
-0.00767166
-0.0331832
-0.0661662
-0.112875
-0.182572
-0.258388
-0.247403
-9.68356
-22.2868
-28.8282
-31.3104
-31.2497
-29.6315
-27.1342
-24.2188
-21.2035
-18.2866
-15.5844
-13.1539
-11.014
-9.15969
-7.57276
-6.22779
-5.09691
-4.15217
-3.36722
-2.71802
-2.18319
-1.74409
-1.38464
-1.09116
-0.852125
-0.657816
-0.500194
-0.372533
-0.269317
-0.185984
-0.118802
-0.0647107
-0.021214
0.0137316
0.0417591
0.0642383
0.0822284
0.0966178
0.108118
0.117295
0.124609
0.130443
0.135077
0.138776
0.141701
0.144038
0.145891
0.147361
0.148536
0.149468
0.150206
0.150806
0.151274
0.151662
0.151963
0.152215
0.152415
0.152578
0.152709
0.152814
0.15289
0.152956
0.152997
0.153035
0.153055
0.153073
0.153076
0.15307
0.153048
0.153011
0.152944
0.152853
0.152713
0.152524
0.152256
0.151893
0.151395
0.150722
0.149813
0.148601
0.146981
0.144841
0.142016
0.138324
0.133524
0.127345
0.119464
0.109538
0.0972121
0.0821771
0.0642088
0.0432122
0.0191729
-0.0081879
-0.0401124
-0.0808021
-0.13779
-0.222733
-0.315993
-0.305196
-11.8204
-27.0804
-34.9453
-37.9205
-37.8353
-35.8693
-32.8409
-29.3076
-25.6552
-22.1234
-18.8525
-15.911
-13.3215
-11.0778
-9.15776
-7.53053
-6.16235
-5.01941
-4.06981
-3.28446
-2.63749
-2.10634
-1.67157
-1.31662
-1.02752
-0.792545
-0.601943
-0.447588
-0.322802
-0.222065
-0.140862
-0.0754916
-0.0229327
0.0192855
0.053142
0.0802858
0.102008
0.119377
0.133253
0.144326
0.153148
0.160182
0.165768
0.170223
0.173749
0.17656
0.178789
0.180556
0.181964
0.183082
0.183965
0.184679
0.185236
0.185695
0.186051
0.186345
0.186579
0.186768
0.186919
0.18704
0.187127
0.187202
0.187248
0.18729
0.187311
0.187327
0.187328
0.187316
0.187285
0.187236
0.187151
0.187035
0.186861
0.186627
0.186297
0.185851
0.185241
0.18442
0.183314
0.181839
0.179874
0.177277
0.173853
0.169381
0.163569
0.156086
0.146544
0.134523
0.119596
0.101386
0.0796292
0.0542316
0.0252401
-0.00752768
-0.0452576
-0.0924619
-0.157577
-0.254424
-0.361978
-0.353525
-13.9481
-31.7712
-40.8837
-44.3209
-44.207
-41.9008
-38.3556
-34.2226
-29.9529
-25.826
-22.0053
-18.57
-15.5463
-12.9268
-10.6852
-8.78554
-7.18838
-5.85419
-4.74574
-3.82905
-3.07391
-2.454
-1.94659
-1.53236
-1.19502
-0.920848
-0.698471
-0.518403
-0.372846
-0.255357
-0.160662
-0.0844409
-0.0231685
0.0260392
0.0654958
0.0971185
0.122422
0.14265
0.158804
0.171693
0.18196
0.190142
0.19664
0.201819
0.205918
0.209181
0.211769
0.21382
0.215451
0.216745
0.217766
0.218588
0.21923
0.219755
0.220163
0.220498
0.220764
0.220977
0.221147
0.221282
0.221381
0.221463
0.221515
0.22156
0.221582
0.221598
0.221595
0.221578
0.221539
0.221477
0.221375
0.221235
0.221029
0.220751
0.220362
0.219835
0.219118
0.218154
0.216858
0.215131
0.212832
0.209796
0.205796
0.200571
0.193782
0.185042
0.173895
0.159851
0.142407
0.121125
0.0957014
0.0660577
0.0323328
-0.00547798
-0.0483286
-0.100699
-0.171481
-0.276338
-0.394372
-0.390527
-16.0645
-36.3329
-46.6063
-50.4728
-50.3269
-47.6904
-43.6456
-38.9341
-34.0701
-29.3715
-25.0231
-21.1145
-17.6747
-14.695
-12.1454
-9.98485
-8.1684
-6.65111
-5.39058
-4.34816
-3.4895
-2.78463
-2.20773
-1.73681
-1.35332
-1.04168
-0.788932
-0.584295
-0.418899
-0.285414
-0.177843
-0.0912711
-0.0216899
0.0341788
0.07897
0.114857
0.143567
0.166513
0.184833
0.199447
0.211085
0.220357
0.22772
0.233583
0.238225
0.241916
0.244844
0.247162
0.249003
0.250464
0.251615
0.252538
0.25326
0.253848
0.254304
0.254677
0.254973
0.255209
0.255396
0.255545
0.255653
0.255743
0.2558
0.255848
0.255872
0.255886
0.255881
0.255859
0.255811
0.255738
0.25562
0.255457
0.25522
0.2549
0.254454
0.253851
0.253031
0.251931
0.250453
0.248486
0.245868
0.242411
0.237861
0.231916
0.224192
0.214248
0.201563
0.185577
0.165717
0.141482
0.112536
0.0788235
0.0406089
-0.0018506
-0.0490907
-0.105184
-0.178963
-0.2875
-0.411582
-0.4145
-18.1665
-40.7352
-52.0741
-56.3375
-56.1583
-53.2033
-48.6785
-43.4131
-37.9816
-32.7379
-27.8873
-23.5284
-19.6931
-16.3713
-13.5291
-11.1208
-9.09611
-7.40497
-6.00008
-4.83833
-3.88143
-3.09597
-2.45315
-1.92845
-1.50121
-1.15405
-0.872532
-0.644625
-0.460447
-0.311824
-0.192073
-0.0957157
-0.0182832
0.0438756
0.0937014
0.13361
0.165531
0.191038
0.211396
0.227633
0.240561
0.250856
0.25903
0.265536
0.270686
0.274779
0.278024
0.280593
0.282629
0.284244
0.285517
0.286535
0.287331
0.287976
0.288478
0.288886
0.289209
0.289465
0.289669
0.28983
0.289948
0.290044
0.290107
0.290158
0.290183
0.290196
0.290188
0.290161
0.290105
0.290021
0.289888
0.289704
0.289438
0.289077
0.288577
0.287902
0.286986
0.285756
0.284107
0.281911
0.278991
0.275137
0.270064
0.263437
0.254827
0.243739
0.229593
0.211759
0.189597
0.162545
0.130238
0.0926561
0.050215
0.00351686
-0.0473681
-0.105712
-0.179721
-0.287324
-0.412479
-0.42395
-20.2495
-44.9419
-57.2466
-61.8769
-61.6654
-58.4057
-53.4236
-47.6319
-41.663
-35.9043
-30.5798
-25.7966
-21.5889
-17.9449
-14.8275
-12.186
-9.96552
-8.11088
-6.57023
-5.29629
-4.24704
-3.38583
-2.68107
-2.10588
-1.63756
-1.25706
-0.948535
-0.698803
-0.497013
-0.334208
-0.203049
-0.097532
-0.0127549
0.0552839
0.109813
0.153476
0.188393
0.216287
0.238543
0.25629
0.270418
0.281664
0.290592
0.297693
0.303316
0.30778
0.311318
0.314118
0.316335
0.318093
0.319477
0.320582
0.321447
0.322144
0.322688
0.323127
0.323475
0.32375
0.323968
0.324141
0.324267
0.32437
0.324437
0.324491
0.324517
0.324529
0.324518
0.324486
0.324424
0.324329
0.324181
0.323977
0.323684
0.323286
0.322736
0.321993
0.320986
0.319636
0.317825
0.315416
0.312213
0.307986
0.302422
0.295154
0.285712
0.273548
0.258025
0.23845
0.214114
0.184398
0.148912
0.107677
0.0612864
0.0107615
-0.0430437
-0.102208
-0.173711
-0.275656
-0.396479
-0.417653
-22.3055
-48.9103
-62.0816
-67.0537
-66.8138
-63.2653
-57.8511
-51.5639
-45.0909
-38.8505
-33.0836
-27.9048
-23.35
-19.406
-16.0322
-13.1738
-10.771
-8.76421
-7.09726
-5.71898
-4.58385
-3.65222
-2.8899
-2.26778
-1.7613
-1.34985
-1.01626
-0.746285
-0.528168
-0.352219
-0.210497
-0.0965024
-0.0049322
0.068541
0.127413
0.174541
0.212219
0.242312
0.266317
0.285453
0.300684
0.312803
0.322423
0.33007
0.336125
0.340928
0.344735
0.347745
0.350128
0.352015
0.3535
0.354684
0.35561
0.356356
0.356936
0.357403
0.357774
0.358066
0.358296
0.35848
0.358614
0.358722
0.358794
0.35885
0.358877
0.358888
0.358875
0.358839
0.35877
0.358665
0.358504
0.358281
0.357962
0.35753
0.356933
0.356128
0.355037
0.353575
0.351615
0.349007
0.345542
0.340969
0.334951
0.327088
0.316871
0.303707
0.286901
0.2657
0.239332
0.207122
0.168656
0.124001
0.0739492
0.0199985