/*--------------------------------*- C++ -*----------------------------------*\
| =========                 |                                                 |
| \\      /  F ield         | OpenFOAM: The Open Source CFD Toolbox           |
|  \\    /   O peration     | Version:  v1906                                 |
|   \\  /    A nd           | Web:      www.OpenFOAM.com                      |
|    \\/     M anipulation  |                                                 |
\*---------------------------------------------------------------------------*/
FoamFile
{
    version     2.0;
    format      ascii;
    class       volScalarField;
    location    "2";
    object      pB;
}
// * * * * * * * * * * * * * * * * * * * * * * * * * * * * * * * * * * * * * //

dimensions      [1 1 -3 0 0 -1 0];


internalField   nonuniform List<scalar> 
4000
(
52.7714
87.1001
86.5311
70.003
53.9941
38.5831
27.3545
18.5141
12.5223
8.14062
5.25931
3.2281
1.91266
1.00495
0.422183
0.0257099
-0.227362
-0.397719
-0.505984
-0.578255
-0.624026
-0.654348
-0.673494
-0.686081
-0.694009
-0.699165
-0.702413
-0.704491
-0.705815
-0.706635
-0.707174
-0.707485
-0.707702
-0.707793
-0.707872
-0.707878
-0.707915
-0.707898
-0.707922
-0.707893
-0.707903
-0.707858
-0.707857
-0.707806
-0.707806
-0.707757
-0.707752
-0.707695
-0.707687
-0.707631
-0.707631
-0.707587
-0.7076
-0.70757
-0.707591
-0.707564
-0.707585
-0.707556
-0.707577
-0.707554
-0.707579
-0.707558
-0.707579
-0.707549
-0.707555
-0.707509
-0.707501
-0.707456
-0.707459
-0.707432
-0.707453
-0.707442
-0.707474
-0.707468
-0.707489
-0.707469
-0.707477
-0.707453
-0.707462
-0.707442
-0.707447
-0.707411
-0.707379
-0.707278
-0.707128
-0.706832
-0.70635
-0.705481
-0.704005
-0.701416
-0.697026
-0.689568
-0.677352
-0.657731
-0.628147
-0.585888
-0.535373
-0.482061
-0.466323
-0.326496
54.0151
86.4783
85.8146
69.5312
53.6205
38.3588
27.1947
18.4282
12.4702
8.1225
5.25718
3.2408
1.93248
1.03105
0.451335
0.0574721
-0.194325
-0.363618
-0.471365
-0.543209
-0.588772
-0.618925
-0.637992
-0.650512
-0.658409
-0.663539
-0.666776
-0.668844
-0.670164
-0.670981
-0.671519
-0.671828
-0.672044
-0.672135
-0.672214
-0.67222
-0.672257
-0.672239
-0.672264
-0.672234
-0.672244
-0.672198
-0.672197
-0.672146
-0.672146
-0.672096
-0.672092
-0.672036
-0.672028
-0.671972
-0.671973
-0.671929
-0.671942
-0.671911
-0.671933
-0.671906
-0.671927
-0.671898
-0.671918
-0.671895
-0.671919
-0.671898
-0.671919
-0.671889
-0.671895
-0.671849
-0.671843
-0.671797
-0.671801
-0.671774
-0.671795
-0.671784
-0.671816
-0.671809
-0.671831
-0.671811
-0.671819
-0.671795
-0.671804
-0.671783
-0.671788
-0.671753
-0.671721
-0.67162
-0.671471
-0.671176
-0.670698
-0.669833
-0.668365
-0.66579
-0.661425
-0.65401
-0.641867
-0.622382
-0.593023
-0.5512
-0.501268
-0.448735
-0.428255
-0.275998
54.7849
85.5226
84.6656
68.7241
52.979
37.9556
26.9094
18.2671
12.3726
8.08322
5.24824
3.25785
1.96314
1.0729
0.499065
0.109893
-0.139421
-0.30678
-0.413504
-0.484563
-0.529715
-0.559554
-0.578457
-0.590853
-0.598687
-0.603768
-0.60698
-0.609031
-0.610342
-0.611152
-0.611687
-0.611993
-0.612208
-0.612298
-0.612377
-0.612382
-0.612419
-0.612401
-0.612425
-0.612395
-0.612404
-0.612358
-0.612357
-0.612305
-0.612305
-0.612255
-0.612252
-0.612196
-0.612189
-0.612134
-0.612135
-0.612091
-0.612105
-0.612074
-0.612095
-0.612068
-0.612089
-0.612059
-0.61208
-0.612055
-0.612079
-0.612056
-0.612078
-0.612048
-0.612055
-0.61201
-0.612004
-0.611959
-0.611964
-0.611936
-0.611957
-0.611945
-0.611978
-0.611971
-0.611994
-0.611974
-0.611982
-0.611957
-0.611967
-0.611945
-0.61195
-0.611914
-0.611883
-0.611782
-0.611636
-0.611344
-0.610871
-0.610016
-0.608564
-0.606016
-0.601698
-0.594366
-0.582361
-0.563118
-0.534152
-0.493025
-0.444014
-0.39241
-0.366245
-0.19419
54.6597
84.0456
82.9699
67.4759
51.9889
37.3025
26.4417
17.9795
12.1845
7.98097
5.19361
3.24183
1.96854
1.09504
0.53049
0.148389
-0.0969864
-0.261411
-0.366505
-0.436366
-0.480856
-0.510214
-0.528854
-0.541058
-0.548787
-0.553793
-0.556965
-0.558986
-0.560283
-0.561082
-0.561612
-0.561913
-0.562126
-0.562214
-0.562293
-0.562298
-0.562335
-0.562316
-0.56234
-0.562308
-0.562317
-0.562269
-0.562268
-0.562216
-0.562216
-0.562166
-0.562164
-0.562108
-0.562103
-0.562048
-0.562051
-0.562007
-0.562021
-0.561989
-0.562011
-0.561983
-0.562004
-0.561974
-0.561994
-0.561967
-0.56199
-0.561967
-0.561988
-0.561958
-0.561967
-0.561922
-0.561918
-0.561874
-0.561879
-0.561851
-0.561872
-0.56186
-0.561893
-0.561886
-0.56191
-0.56189
-0.561898
-0.561873
-0.561882
-0.56186
-0.561864
-0.561828
-0.561798
-0.561699
-0.561555
-0.561267
-0.560803
-0.559962
-0.558535
-0.556032
-0.551787
-0.544583
-0.53279
-0.513911
-0.48553
-0.445389
-0.39766
-0.347114
-0.314268
-0.115704
53.6878
82.0155
80.7478
65.7901
50.6596
36.4003
25.7942
17.5645
11.9057
7.81411
5.09191
3.1908
1.94686
1.09545
0.543678
0.170963
-0.0689791
-0.229487
-0.332322
-0.400575
-0.444143
-0.472851
-0.491121
-0.503065
-0.510645
-0.515549
-0.518663
-0.520645
-0.52192
-0.522705
-0.523226
-0.523521
-0.523731
-0.523817
-0.523896
-0.5239
-0.523936
-0.523916
-0.523939
-0.523906
-0.523914
-0.523866
-0.523864
-0.523811
-0.523811
-0.523761
-0.52376
-0.523705
-0.523702
-0.523648
-0.523652
-0.523609
-0.523622
-0.52359
-0.523611
-0.523583
-0.523605
-0.523574
-0.523592
-0.523564
-0.523586
-0.523561
-0.523582
-0.523553
-0.523562
-0.52352
-0.523517
-0.523473
-0.52348
-0.523452
-0.523472
-0.523459
-0.523492
-0.523487
-0.523511
-0.523491
-0.523499
-0.523474
-0.523483
-0.52346
-0.523464
-0.523428
-0.523398
-0.523301
-0.52316
-0.52288
-0.522427
-0.521606
-0.520213
-0.517768
-0.513623
-0.506592
-0.495085
-0.476689
-0.449076
-0.410185
-0.364046
-0.314613
-0.274448
-0.0470668
52.0382
79.4379
78.0284
63.6861
49.0111
35.2627
24.9801
17.0322
11.5462
7.5913
4.9517
3.1128
1.90616
1.08201
0.546517
0.185453
-0.0475521
-0.203174
-0.303113
-0.369349
-0.411728
-0.439617
-0.457406
-0.469021
-0.476408
-0.48118
-0.484218
-0.486149
-0.487396
-0.488162
-0.488671
-0.488958
-0.489164
-0.489247
-0.489325
-0.489328
-0.489363
-0.489342
-0.489364
-0.489329
-0.489337
-0.489288
-0.489285
-0.489232
-0.489231
-0.489182
-0.489181
-0.489128
-0.489126
-0.489074
-0.489079
-0.489036
-0.48905
-0.489017
-0.489038
-0.48901
-0.489031
-0.489
-0.489017
-0.488987
-0.489007
-0.488981
-0.489002
-0.488973
-0.488984
-0.488942
-0.488942
-0.488899
-0.488906
-0.488879
-0.488898
-0.488885
-0.488918
-0.488913
-0.488939
-0.488919
-0.488927
-0.4889
-0.488909
-0.488885
-0.488889
-0.488853
-0.488825
-0.48873
-0.488594
-0.488322
-0.487883
-0.487088
-0.485736
-0.483366
-0.479347
-0.472533
-0.461384
-0.443585
-0.416916
-0.379513
-0.335226
-0.286946
-0.239224
0.0153867
49.851
76.3299
74.837
61.1819
47.0596
33.9008
24.0085
16.3893
11.1116
7.31714
4.77718
3.01157
1.85002
1.05812
0.54237
0.195164
-0.0294123
-0.179197
-0.2756
-0.339414
-0.380334
-0.407232
-0.424428
-0.435641
-0.442788
-0.4474
-0.450343
-0.452212
-0.453422
-0.454164
-0.454659
-0.454936
-0.455136
-0.455216
-0.455292
-0.455293
-0.455327
-0.455305
-0.455325
-0.455289
-0.455296
-0.455246
-0.455242
-0.455189
-0.455188
-0.455139
-0.45514
-0.455088
-0.455087
-0.455037
-0.455043
-0.455002
-0.455015
-0.454982
-0.455002
-0.454973
-0.454994
-0.454963
-0.454978
-0.454946
-0.454964
-0.454936
-0.454957
-0.454929
-0.454941
-0.454902
-0.454903
-0.454862
-0.45487
-0.454843
-0.454862
-0.454848
-0.454881
-0.454876
-0.454903
-0.454883
-0.45489
-0.454864
-0.454872
-0.454848
-0.454851
-0.454815
-0.454788
-0.454697
-0.454566
-0.454303
-0.453882
-0.453117
-0.451817
-0.449536
-0.445668
-0.439113
-0.428392
-0.411302
-0.385743
-0.350045
-0.307839
-0.260771
-0.205648
0.0720287
47.2356
72.7159
71.1974
58.2955
44.8195
32.3241
22.8865
15.6405
10.6052
6.99378
4.56988
2.8882
1.77928
1.02445
0.531797
0.200586
-0.0140974
-0.157114
-0.24935
-0.310342
-0.349531
-0.375267
-0.391753
-0.402492
-0.409352
-0.413775
-0.416604
-0.418398
-0.419563
-0.420276
-0.420754
-0.421019
-0.421212
-0.421288
-0.421361
-0.42136
-0.421392
-0.421369
-0.421387
-0.42135
-0.421355
-0.421305
-0.421301
-0.421247
-0.421246
-0.421197
-0.421199
-0.421149
-0.42115
-0.421102
-0.421109
-0.421069
-0.421081
-0.421048
-0.421067
-0.421038
-0.421059
-0.421027
-0.42104
-0.421006
-0.421021
-0.420993
-0.421013
-0.420985
-0.420999
-0.420962
-0.420965
-0.420926
-0.420935
-0.420908
-0.420927
-0.420912
-0.420945
-0.420941
-0.420968
-0.420948
-0.420955
-0.420928
-0.420936
-0.420911
-0.420914
-0.420879
-0.420853
-0.420765
-0.42064
-0.42039
-0.419989
-0.419259
-0.418018
-0.415841
-0.412149
-0.405894
-0.395669
-0.379394
-0.355104
-0.321307
-0.281386
-0.23564
-0.173697
0.12124
44.2799
68.627
67.1346
55.0465
42.3061
30.543
21.6215
14.7907
10.0304
6.6233
4.33114
2.74354
1.69445
0.981317
0.514977
0.201817
-0.00155325
-0.136901
-0.224352
-0.282131
-0.31932
-0.343726
-0.359386
-0.369581
-0.376106
-0.38031
-0.383005
-0.384711
-0.385823
-0.386502
-0.386959
-0.387211
-0.387395
-0.387465
-0.387535
-0.387532
-0.387561
-0.387537
-0.387553
-0.387515
-0.387519
-0.387468
-0.387463
-0.387409
-0.387407
-0.387359
-0.387362
-0.387314
-0.387317
-0.387271
-0.38728
-0.38724
-0.387252
-0.387218
-0.387237
-0.387207
-0.387227
-0.387194
-0.387206
-0.387169
-0.387183
-0.387153
-0.387173
-0.387146
-0.387161
-0.387127
-0.387132
-0.387094
-0.387104
-0.387078
-0.387096
-0.387081
-0.387113
-0.38711
-0.387136
-0.387117
-0.387124
-0.387096
-0.387103
-0.387078
-0.38708
-0.387046
-0.387023
-0.386939
-0.386821
-0.386583
-0.386205
-0.385515
-0.384342
-0.382282
-0.37879
-0.372875
-0.363211
-0.347852
-0.32498
-0.29326
-0.255807
-0.211562
-0.14386
0.161525
41.0545
64.0994
62.6757
51.4567
39.5357
28.5695
20.2216
13.8455
9.39073
6.20817
4.06258
2.57863
1.59619
0.92915
0.492192
0.199046
0.0083492
-0.118464
-0.200535
-0.254722
-0.289654
-0.312566
-0.327288
-0.336868
-0.343011
-0.346966
-0.349506
-0.351112
-0.352162
-0.352802
-0.353234
-0.353471
-0.353645
-0.353709
-0.353774
-0.353769
-0.353796
-0.353769
-0.353783
-0.353744
-0.353747
-0.353695
-0.35369
-0.353636
-0.353634
-0.353586
-0.353591
-0.353545
-0.35355
-0.353506
-0.353516
-0.353476
-0.353488
-0.353453
-0.353471
-0.353441
-0.35346
-0.353426
-0.353437
-0.353398
-0.35341
-0.353379
-0.353397
-0.353371
-0.353388
-0.353356
-0.353362
-0.353327
-0.353339
-0.353312
-0.35333
-0.353314
-0.353346
-0.353343
-0.35337
-0.35335
-0.353357
-0.353329
-0.353335
-0.35331
-0.353312
-0.353279
-0.353257
-0.353178
-0.353068
-0.352845
-0.352492
-0.351846
-0.350748
-0.34882
-0.345549
-0.340012
-0.33097
-0.316621
-0.295302
-0.265819
-0.230999
-0.188514
-0.116557
0.191989
37.6149
59.172
57.8495
47.55
36.526
26.4164
18.6958
12.811
8.6904
5.75116
3.76598
2.39465
1.48529
0.868457
0.463775
0.192496
0.015759
-0.101696
-0.177822
-0.228056
-0.260484
-0.281744
-0.295423
-0.304319
-0.310034
-0.313711
-0.316077
-0.31757
-0.31855
-0.319145
-0.31955
-0.319768
-0.319931
-0.319988
-0.320049
-0.320039
-0.320063
-0.320034
-0.320047
-0.320006
-0.320008
-0.319956
-0.31995
-0.319896
-0.319894
-0.319847
-0.319853
-0.319809
-0.319816
-0.319774
-0.319785
-0.319746
-0.319757
-0.319721
-0.319738
-0.319708
-0.319726
-0.319692
-0.319701
-0.31966
-0.31967
-0.319638
-0.319656
-0.319631
-0.319649
-0.319618
-0.319627
-0.319593
-0.319606
-0.319581
-0.319597
-0.319582
-0.319613
-0.31961
-0.319637
-0.319617
-0.319623
-0.319594
-0.3196
-0.319575
-0.319577
-0.319545
-0.319525
-0.319451
-0.31935
-0.319143
-0.318818
-0.31822
-0.317205
-0.31542
-0.312393
-0.307269
-0.298907
-0.285655
-0.266007
-0.238906
-0.206869
-0.166482
-0.0921222
0.212242
34.0051
53.885
52.6866
43.352
33.2958
24.0977
17.0537
11.6939
7.93387
5.2553
3.44334
2.19294
1.36258
0.799799
0.430083
0.182403
0.0208275
-0.0864968
-0.156147
-0.202087
-0.231779
-0.251236
-0.263771
-0.27192
-0.277163
-0.280533
-0.282707
-0.284075
-0.284977
-0.285522
-0.285895
-0.286093
-0.286243
-0.286292
-0.286347
-0.286334
-0.286354
-0.286323
-0.286334
-0.286292
-0.286292
-0.28624
-0.286234
-0.28618
-0.286178
-0.286132
-0.286139
-0.286098
-0.286106
-0.286066
-0.286078
-0.28604
-0.28605
-0.286014
-0.28603
-0.285998
-0.286016
-0.285981
-0.285988
-0.285946
-0.285954
-0.285921
-0.285938
-0.285914
-0.285933
-0.285904
-0.285914
-0.285883
-0.285897
-0.285872
-0.285889
-0.285872
-0.285903
-0.2859
-0.285927
-0.285907
-0.285912
-0.285883
-0.285889
-0.285864
-0.285866
-0.285835
-0.285818
-0.285749
-0.285657
-0.285468
-0.285172
-0.284627
-0.283701
-0.28207
-0.279307
-0.27463
-0.267
-0.254924
-0.237056
-0.212464
-0.183353
-0.145463
-0.0707956
0.222284
30.2599
48.2789
47.219
38.8896
29.8651
21.6283
15.3056
10.5015
7.126
4.72393
3.09683
1.97495
1.22903
0.723802
0.391517
0.16903
0.0237223
-0.0727572
-0.13544
-0.176769
-0.203509
-0.221024
-0.23232
-0.23966
-0.24439
-0.247428
-0.249391
-0.250623
-0.251438
-0.251928
-0.252267
-0.252443
-0.252578
-0.252619
-0.252668
-0.25265
-0.252666
-0.252633
-0.252641
-0.252598
-0.252597
-0.252545
-0.252539
-0.252485
-0.252484
-0.252438
-0.252447
-0.252407
-0.252417
-0.25238
-0.252392
-0.252354
-0.252364
-0.252327
-0.252342
-0.25231
-0.252326
-0.25229
-0.252296
-0.252252
-0.252259
-0.252225
-0.252242
-0.252218
-0.252238
-0.252211
-0.252223
-0.252193
-0.252209
-0.252185
-0.252201
-0.252184
-0.252215
-0.252212
-0.252237
-0.252217
-0.252221
-0.252193
-0.252198
-0.252173
-0.252175
-0.252146
-0.252132
-0.252068
-0.251987
-0.251816
-0.251553
-0.251063
-0.250233
-0.248767
-0.246286
-0.242085
-0.235236
-0.224407
-0.208414
-0.186447
-0.160397
-0.125448
-0.0526971
0.222445
26.4073
42.3939
41.4799
34.1911
26.2549
19.024
13.4624
9.24163
6.27197
4.1606
2.72881
1.74226
1.08565
0.641156
0.348527
0.152673
0.0246349
-0.060351
-0.11562
-0.152048
-0.175638
-0.191083
-0.201055
-0.207529
-0.211709
-0.21439
-0.216126
-0.21721
-0.217932
-0.218362
-0.218663
-0.218815
-0.218935
-0.218965
-0.219008
-0.218985
-0.218997
-0.218961
-0.218968
-0.218923
-0.218922
-0.218869
-0.218863
-0.21881
-0.218808
-0.218764
-0.218773
-0.218736
-0.218748
-0.218712
-0.218725
-0.218688
-0.218697
-0.218659
-0.218673
-0.21864
-0.218655
-0.218618
-0.218623
-0.218578
-0.218583
-0.218549
-0.218565
-0.218542
-0.218563
-0.218538
-0.218551
-0.218523
-0.21854
-0.218516
-0.218532
-0.218515
-0.218545
-0.218542
-0.218567
-0.218546
-0.21855
-0.218521
-0.218526
-0.218501
-0.218504
-0.218476
-0.218465
-0.218408
-0.218337
-0.218185
-0.217956
-0.217525
-0.216796
-0.215505
-0.213322
-0.209624
-0.203599
-0.194081
-0.180049
-0.160808
-0.137943
-0.106407
-0.0378168
0.21333
22.4697
36.2696
35.5038
29.2859
22.4872
16.3013
11.5356
7.92233
5.37728
3.56911
2.34179
1.4966
0.933586
0.552615
0.301605
0.133662
0.0237799
-0.0491357
-0.0965938
-0.127862
-0.148126
-0.161386
-0.169955
-0.175514
-0.17911
-0.181412
-0.182905
-0.183833
-0.184454
-0.18482
-0.185081
-0.185207
-0.18531
-0.18533
-0.185364
-0.185336
-0.185344
-0.185306
-0.18531
-0.185265
-0.185262
-0.18521
-0.185203
-0.18515
-0.185149
-0.185106
-0.185117
-0.185081
-0.185095
-0.18506
-0.185074
-0.185037
-0.185046
-0.185007
-0.18502
-0.184987
-0.185
-0.184963
-0.184966
-0.18492
-0.184925
-0.18489
-0.184906
-0.184883
-0.184905
-0.184881
-0.184895
-0.184868
-0.184886
-0.184864
-0.184879
-0.184862
-0.184891
-0.184888
-0.184912
-0.18489
-0.184894
-0.184864
-0.18487
-0.184845
-0.184848
-0.184822
-0.184815
-0.184764
-0.184705
-0.184573
-0.184379
-0.18401
-0.183386
-0.182279
-0.180408
-0.177238
-0.172074
-0.163923
-0.151927
-0.135498
-0.115936
-0.0882819
-0.0260172
0.195771
18.4659
29.9447
29.3258
24.2043
18.5848
13.4773
9.53718
6.55213
4.44771
2.95344
1.93844
1.23976
0.774028
0.45899
0.251286
0.112354
0.0213924
-0.0389539
-0.0782579
-0.104143
-0.120928
-0.131903
-0.139002
-0.143601
-0.146582
-0.148486
-0.149724
-0.150486
-0.151001
-0.151299
-0.151516
-0.151615
-0.151701
-0.151709
-0.151736
-0.151702
-0.151705
-0.151665
-0.151667
-0.15162
-0.151617
-0.151564
-0.151558
-0.151506
-0.151505
-0.151463
-0.151475
-0.151441
-0.151455
-0.151422
-0.151436
-0.1514
-0.151408
-0.151369
-0.151381
-0.151347
-0.15136
-0.151321
-0.151323
-0.151277
-0.15128
-0.151245
-0.151261
-0.151239
-0.151261
-0.151238
-0.151253
-0.151228
-0.151247
-0.151225
-0.15124
-0.151223
-0.151251
-0.151248
-0.151271
-0.151249
-0.151251
-0.151222
-0.151227
-0.151204
-0.151207
-0.151183
-0.151179
-0.151135
-0.151087
-0.150977
-0.150819
-0.150514
-0.150001
-0.149084
-0.147538
-0.144915
-0.140646
-0.13391
-0.12401
-0.110469
-0.0943143
-0.0709896
-0.0170424
0.170784
14.4112
23.4572
22.9819
18.9774
14.5711
10.5696
7.47956
5.13986
3.48926
2.31776
1.52154
0.973656
0.608245
0.361137
0.198137
0.0891318
0.0177256
-0.0296358
-0.0604996
-0.0808143
-0.0939925
-0.102599
-0.108171
-0.111774
-0.114115
-0.115603
-0.116576
-0.117165
-0.117568
-0.117795
-0.117967
-0.118037
-0.118104
-0.1181
-0.118118
-0.118079
-0.118078
-0.118035
-0.118035
-0.117988
-0.117983
-0.117931
-0.117924
-0.117873
-0.117873
-0.117832
-0.117844
-0.117812
-0.117828
-0.117796
-0.11781
-0.117774
-0.117782
-0.117743
-0.117753
-0.117719
-0.11773
-0.11769
-0.117691
-0.117645
-0.117648
-0.117613
-0.117628
-0.117607
-0.117629
-0.117607
-0.117623
-0.117599
-0.117619
-0.117598
-0.117613
-0.117595
-0.117623
-0.117619
-0.117641
-0.117618
-0.11762
-0.117591
-0.117596
-0.117573
-0.117577
-0.117555
-0.117555
-0.117518
-0.117482
-0.117394
-0.117274
-0.117034
-0.116635
-0.115915
-0.114704
-0.112646
-0.109298
-0.104015
-0.0962638
-0.0856708
-0.0730139
-0.0544199
-0.0105308
0.139532
10.3191
16.8442
16.5085
13.6368
10.4703
7.5965
5.37553
3.6946
2.50815
1.66636
1.094
0.700266
0.437563
0.259954
0.142756
0.064399
0.0130479
-0.0210006
-0.0431986
-0.0577949
-0.0672653
-0.0734375
-0.0774374
-0.0800143
-0.0816966
-0.0827563
-0.0834539
-0.0838645
-0.0841522
-0.0843047
-0.08443
-0.0844702
-0.0845171
-0.0845012
-0.0845105
-0.0844653
-0.08446
-0.0844139
-0.0844125
-0.084364
-0.084358
-0.0843061
-0.0842995
-0.0842493
-0.0842497
-0.0842096
-0.084223
-0.0841922
-0.0842086
-0.0841776
-0.0841918
-0.084156
-0.0841637
-0.0841246
-0.0841346
-0.0840996
-0.0841094
-0.0840688
-0.0840687
-0.0840222
-0.0840245
-0.0839897
-0.0840051
-0.0839841
-0.0840073
-0.0839857
-0.0840016
-0.0839788
-0.0839991
-0.0839786
-0.0839935
-0.0839757
-0.0840034
-0.0839993
-0.0840203
-0.0839965
-0.0839982
-0.0839689
-0.0839737
-0.0839514
-0.0839565
-0.0839368
-0.0839404
-0.0839109
-0.0838876
-0.0838213
-0.0837396
-0.0835675
-0.0832844
-0.0827659
-0.0818985
-0.0804181
-0.0780126
-0.0742142
-0.0686507
-0.0610537
-0.0519677
-0.0384392
-0.00603136
0.103294
6.20139
10.1419
9.94218
8.21459
6.30702
4.57634
3.23814
2.22562
1.51073
1.00365
0.658802
0.421627
0.263348
0.156369
0.0857641
0.0385753
0.00763965
-0.0128589
-0.0262281
-0.0349991
-0.0406889
-0.0443786
-0.0467744
-0.0483042
-0.0493127
-0.0499346
-0.0503507
-0.0505786
-0.050748
-0.0508244
-0.0509013
-0.0509105
-0.0509374
-0.0509086
-0.0509089
-0.050858
-0.0508483
-0.0507996
-0.0507964
-0.050747
-0.05074
-0.0506883
-0.0506819
-0.0506326
-0.0506336
-0.0505945
-0.0506086
-0.0505789
-0.0505959
-0.0505656
-0.0505796
-0.0505442
-0.050552
-0.0505129
-0.0505221
-0.0504866
-0.0504951
-0.0504536
-0.0504526
-0.0504062
-0.0504083
-0.0503739
-0.0503894
-0.0503689
-0.0503924
-0.0503714
-0.0503875
-0.0503653
-0.0503858
-0.0503658
-0.0503805
-0.0503627
-0.05039
-0.0503856
-0.0504056
-0.050381
-0.0503822
-0.0503531
-0.0503578
-0.0503362
-0.0503423
-0.0503251
-0.0503327
-0.0503106
-0.0502999
-0.0502561
-0.0502134
-0.0501096
-0.0499448
-0.0496311
-0.049113
-0.0482203
-0.0467723
-0.0444805
-0.0411332
-0.0365665
-0.0311054
-0.0228941
-0.00302146
0.0634347
2.06862
3.38641
3.32012
2.74338
2.10603
1.52786
1.08066
0.74236
0.50349
0.334129
0.218975
0.139822
0.0870008
0.0513343
0.0277995
0.0120926
0.00179004
-0.00501544
-0.00945723
-0.0123383
-0.0142034
-0.015382
-0.016154
-0.016624
-0.01695
-0.0171281
-0.0172588
-0.0173015
-0.0173509
-0.0173501
-0.0173777
-0.0173553
-0.0173618
-0.0173199
-0.0173111
-0.0172544
-0.0172405
-0.0171893
-0.0171842
-0.0171341
-0.0171261
-0.0170745
-0.0170685
-0.0170202
-0.0170218
-0.0169837
-0.0169982
-0.0169695
-0.0169867
-0.0169569
-0.0169706
-0.0169358
-0.0169436
-0.0169048
-0.0169133
-0.0168774
-0.0168846
-0.0168423
-0.0168405
-0.0167942
-0.0167964
-0.0167626
-0.0167783
-0.0167585
-0.0167821
-0.0167616
-0.0167775
-0.0167556
-0.0167762
-0.0167565
-0.0167711
-0.0167534
-0.0167802
-0.0167755
-0.0167944
-0.0167692
-0.01677
-0.016741
-0.0167457
-0.0167249
-0.0167321
-0.0167175
-0.0167293
-0.0167147
-0.0167167
-0.0166955
-0.016692
-0.0166572
-0.0166118
-0.016505
-0.0163397
-0.0160406
-0.0155595
-0.0147875
-0.0136735
-0.0121575
-0.0103544
-0.00761657
-0.000926233
0.0213788
-2.06908
-3.38684
-3.32054
-2.74421
-2.10754
-1.53009
-1.08355
-0.74568
-0.50704
-0.337674
-0.222398
-0.143043
-0.0900594
-0.0541852
-0.0304902
-0.0146101
-0.00420651
0.00272923
0.00724789
0.0102783
0.0122522
0.0135942
0.0144521
0.0150461
0.0154055
0.0156732
0.0158293
0.0159727
0.0160437
0.0161222
0.0161444
0.0161987
0.0162128
0.0162679
0.0162858
0.016348
0.016366
0.0164196
0.0164265
0.0164774
0.0164862
0.0165376
0.0165434
0.0165905
0.0165883
0.0166255
0.0166106
0.0166388
0.0166215
0.0166511
0.0166378
0.0166721
0.016664
0.0167024
0.0166944
0.0167308
0.0167248
0.0167678
0.0167704
0.0168163
0.0168138
0.0168468
0.0168307
0.0168499
0.0168262
0.0168465
0.0168309
0.0168527
0.0168324
0.016852
0.0168375
0.016855
0.0168286
0.0168336
0.0168157
0.0168415
0.0168411
0.0168699
0.0168652
0.0168852
0.0168767
0.0168887
0.0168726
0.0168796
0.0168649
0.0168635
0.0168277
0.0167935
0.0167191
0.0166183
0.0164295
0.016133
0.015644
0.0148915
0.0137667
0.0122251
0.0103592
0.0075709
0.0008608
-0.021413
-6.20184
-10.1423
-9.94258
-8.21543
-6.30854
-4.57858
-3.24105
-2.22896
-1.51429
-1.0072
-0.662228
-0.42485
-0.266407
-0.159219
-0.0884536
-0.041091
-0.0100538
0.0105756
0.0240219
0.0329418
0.0387396
0.042592
0.0450729
0.0467264
0.0477682
0.0484798
0.0489214
0.0492499
0.0494407
0.0495966
0.0496685
0.0497546
0.0497894
0.0498576
0.0498845
0.0499521
0.0499738
0.0500298
0.0500384
0.0500899
0.0500995
0.0501508
0.0501562
0.0502022
0.0501994
0.0502357
0.0502207
0.0502485
0.0502314
0.050261
0.0502481
0.0502819
0.0502734
0.0503114
0.0503037
0.0503404
0.0503356
0.0503793
0.0503825
0.0504279
0.0504249
0.0504569
0.0504403
0.0504589
0.0504352
0.0504553
0.0504403
0.0504623
0.0504426
0.0504622
0.0504478
0.050465
0.050439
0.0504443
0.0504274
0.0504537
0.0504536
0.0504823
0.0504775
0.0504966
0.0504868
0.050496
0.0504756
0.050475
0.0504476
0.0504236
0.0503489
0.050246
0.0500524
0.0497445
0.0492027
0.0483125
0.0468562
0.0445836
0.0412255
0.0366334
0.0311099
0.0228488
0.00295671
-0.0634684
-10.3196
-16.8445
-16.5088
-13.6376
-10.4719
-7.59877
-5.37847
-3.69796
-2.51173
-1.66992
-1.09744
-0.703493
-0.440622
-0.262802
-0.145443
-0.0669112
-0.0154574
0.0187228
0.0409984
0.055743
0.0653199
0.0716531
0.0757369
0.0784366
0.0801522
0.081302
0.0820252
0.0825361
0.0828449
0.0830772
0.0831982
0.0833157
0.0833708
0.0834519
0.0834877
0.0835603
0.0835856
0.0836438
0.0836541
0.0837062
0.0837165
0.0837675
0.0837726
0.0838174
0.083814
0.0838495
0.0838346
0.0838623
0.0838457
0.0838754
0.0838631
0.0838964
0.0838874
0.0839247
0.0839174
0.0839543
0.0839505
0.0839948
0.0839985
0.0840432
0.0840395
0.0840704
0.0840531
0.0840711
0.0840475
0.0840677
0.0840534
0.0840759
0.084057
0.0840766
0.0840624
0.0840793
0.0840536
0.0840593
0.0840432
0.0840699
0.0840702
0.0840986
0.0840938
0.084112
0.0841007
0.0841071
0.0840824
0.0840742
0.0840341
0.083988
0.0838748
0.083704
0.0833924
0.0828796
0.0819882
0.0805099
0.0780953
0.0743156
0.0687413
0.0611193
0.0519719
0.0383946
0.00596793
-0.103327
-14.4116
-23.4576
-22.9823
-18.9782
-14.5727
-10.5719
-7.48255
-5.14326
-3.49287
-2.32134
-1.52499
-0.97689
-0.611305
-0.363983
-0.20082
-0.0916386
-0.0201282
0.0273662
0.0583085
0.0787704
0.0920529
0.100818
0.106472
0.110196
0.112571
0.11415
0.115148
0.115837
0.116261
0.116568
0.116737
0.116885
0.11696
0.117054
0.117098
0.117175
0.117204
0.117264
0.117276
0.117329
0.11734
0.11739
0.117395
0.117439
0.117435
0.11747
0.117455
0.117483
0.117467
0.117497
0.117485
0.117518
0.117508
0.117545
0.117538
0.117575
0.117572
0.117617
0.117621
0.117665
0.11766
0.11769
0.117672
0.117689
0.117666
0.117686
0.117673
0.117696
0.117678
0.117698
0.117684
0.1177
0.117675
0.117681
0.117666
0.117693
0.117693
0.117722
0.117717
0.117734
0.117721
0.117725
0.117696
0.11768
0.117627
0.117559
0.117409
0.117171
0.116744
0.116029
0.114794
0.112737
0.109379
0.104114
0.0963518
0.0857344
0.0730175
0.0543763
0.0104692
-0.139564
-18.4662
-29.945
-29.3262
-24.2052
-18.5864
-13.4796
-9.54022
-6.55558
-4.45135
-2.95705
-1.9419
-1.243
-0.777088
-0.461833
-0.253964
-0.114853
-0.0237859
0.0366951
0.0760784
0.10211
0.118996
0.130127
0.137305
0.142024
0.145038
0.147033
0.148298
0.149159
0.149693
0.150072
0.150288
0.150466
0.15056
0.150666
0.150718
0.1508
0.150832
0.150894
0.150907
0.150961
0.150972
0.151022
0.151026
0.151069
0.151064
0.151099
0.151084
0.151113
0.151098
0.151128
0.151117
0.151149
0.151139
0.151175
0.151168
0.151205
0.151203
0.151248
0.151252
0.151295
0.15129
0.151318
0.151299
0.151316
0.151293
0.151313
0.151301
0.151325
0.151309
0.151329
0.151315
0.151331
0.151306
0.151312
0.151298
0.151325
0.151326
0.151354
0.151349
0.151365
0.15135
0.151351
0.151318
0.151295
0.15123
0.151141
0.150953
0.150651
0.15011
0.149199
0.147628
0.145006
0.140725
0.134005
0.124095
0.11053
0.094317
0.0709472
0.0169832
-0.170813
-22.47
-36.2698
-35.5041
-29.2868
-22.4889
-16.3037
-11.5387
-7.92584
-5.38097
-3.57275
-2.34527
-1.49985
-0.936648
-0.555454
-0.304277
-0.136152
-0.0261622
0.04689
0.0944285
0.125841
0.146203
0.159615
0.16826
0.173937
0.177566
0.17996
0.18148
0.182506
0.183147
0.183594
0.183854
0.184061
0.184173
0.184291
0.184351
0.184437
0.184471
0.184535
0.18455
0.184604
0.184615
0.184665
0.184669
0.18471
0.184705
0.184739
0.184725
0.184754
0.18474
0.184771
0.184761
0.184792
0.184782
0.184817
0.18481
0.184847
0.184846
0.184891
0.184895
0.184937
0.18493
0.184957
0.184937
0.184953
0.18493
0.184952
0.184941
0.184966
0.184951
0.184971
0.184957
0.184973
0.184948
0.184955
0.184941
0.184969
0.18497
0.184997
0.184992
0.185008
0.184991
0.184989
0.184951
0.184921
0.184845
0.184735
0.184512
0.184147
0.183496
0.182394
0.180498
0.177327
0.172151
0.164015
0.152007
0.135556
0.115938
0.0882408
0.0259608
-0.195798
-26.4075
-42.394
-41.4802
-34.192
-26.2566
-19.0265
-13.4656
-9.24521
-6.27571
-4.16428
-2.73232
-1.74553
-1.08872
-0.64399
-0.351191
-0.155153
-0.0270041
0.0581206
0.113471
0.150041
0.173725
0.189317
0.199362
0.205952
0.210165
0.212939
0.214702
0.215884
0.216624
0.217137
0.217439
0.217672
0.217802
0.217931
0.217998
0.218088
0.218125
0.21819
0.218207
0.218261
0.218272
0.218322
0.218325
0.218365
0.218359
0.218393
0.21838
0.21841
0.218397
0.218429
0.218419
0.21845
0.218439
0.218473
0.218467
0.218504
0.218503
0.218547
0.218551
0.218592
0.218584
0.218609
0.218589
0.218604
0.218582
0.218604
0.218594
0.218621
0.218607
0.218628
0.218614
0.218629
0.218605
0.218612
0.218599
0.218627
0.218628
0.218655
0.21865
0.218664
0.218646
0.218641
0.218599
0.218562
0.218474
0.218344
0.218087
0.217662
0.216906
0.215621
0.213411
0.209713
0.203673
0.194168
0.180125
0.160862
0.137943
0.106367
0.0377634
-0.213355
-30.26
-48.2789
-47.2192
-38.8905
-29.8669
-21.6309
-15.3089
-10.5052
-7.1298
-4.72765
-3.10036
-1.97822
-1.23209
-0.72663
-0.394173
-0.171498
-0.0260765
0.0705439
0.133309
0.174778
0.201607
0.219265
0.23063
0.238084
0.242847
0.245979
0.247969
0.249297
0.250131
0.250704
0.251045
0.251304
0.25145
0.251589
0.251663
0.251756
0.251795
0.251862
0.25188
0.251934
0.251946
0.251994
0.251996
0.252035
0.25203
0.252063
0.252051
0.252082
0.252071
0.252103
0.252094
0.252125
0.252114
0.252147
0.25214
0.252177
0.252176
0.252221
0.252224
0.252263
0.252254
0.252277
0.252256
0.252271
0.25225
0.252273
0.252264
0.252292
0.25228
0.252301
0.252287
0.252301
0.252277
0.252286
0.252273
0.252301
0.252303
0.25233
0.252324
0.252337
0.252317
0.252309
0.252263
0.252219
0.25212
0.251972
0.251683
0.2512
0.250344
0.248884
0.246375
0.242173
0.235307
0.224489
0.208484
0.186496
0.160394
0.125409
0.0526469
-0.222467
-34.0051
-53.8849
-52.6868
-43.3529
-33.2976
-24.1004
-17.0571
-11.6976
-7.93774
-5.25907
-3.4469
-2.19623
-1.36565
-0.802622
-0.432728
-0.184857
-0.0231652
0.0843021
0.154035
0.200113
0.22989
0.249484
0.262084
0.270344
0.27562
0.279085
0.281286
0.28275
0.28367
0.284298
0.284676
0.284958
0.285119
0.285267
0.285348
0.285444
0.285485
0.285553
0.285573
0.285627
0.285638
0.285685
0.285687
0.285725
0.285719
0.285752
0.285742
0.285773
0.285764
0.285796
0.285788
0.285818
0.285807
0.28584
0.285833
0.28587
0.285869
0.285913
0.285916
0.285953
0.285943
0.285964
0.285942
0.285957
0.285936
0.28596
0.285953
0.285982
0.285971
0.285992
0.285979
0.285993
0.285969
0.285978
0.285966
0.285994
0.285996
0.286023
0.286017
0.286029
0.286007
0.285996
0.285946
0.285896
0.285787
0.28562
0.285301
0.284764
0.283814
0.282188
0.279397
0.274717
0.267069
0.255002
0.23712
0.212508
0.183349
0.145425
0.0707487
-0.222304
-37.6148
-59.1718
-57.8497
-47.551
-36.5279
-26.4192
-18.6993
-12.8148
-8.69434
-5.75497
-3.76957
-2.39796
-1.48836
-0.871273
-0.466409
-0.194936
-0.018079
0.099521
0.175731
0.226101
0.258608
0.279999
0.293739
0.302744
0.308492
0.312264
0.314658
0.316246
0.317243
0.317923
0.318333
0.318637
0.318812
0.318969
0.319054
0.319153
0.319196
0.319266
0.319286
0.31934
0.319351
0.319397
0.319398
0.319435
0.319429
0.319462
0.319453
0.319485
0.319477
0.319511
0.319503
0.319533
0.319522
0.319555
0.319548
0.319584
0.319583
0.319626
0.319628
0.319664
0.319652
0.319672
0.319649
0.319664
0.319644
0.319669
0.319663
0.319693
0.319684
0.319705
0.319691
0.319705
0.319682
0.319691
0.31968
0.319708
0.319711
0.319737
0.319731
0.319741
0.319718
0.319703
0.319651
0.319594
0.319475
0.319292
0.318944
0.318357
0.317319
0.315538
0.312483
0.307356
0.298973
0.285728
0.266065
0.238944
0.206862
0.166445
0.0920784
-0.212259
-41.0542
-64.099
-62.6758
-51.4577
-39.5376
-28.5724
-20.2252
-13.8494
-9.39476
-6.21204
-4.0662
-2.58195
-1.59926
-0.931959
-0.494814
-0.201469
-0.0106504
0.11631
0.198465
0.252785
0.287791
0.310829
0.325608
0.335294
0.341469
0.34552
0.348088
0.349788
0.350856
0.351581
0.352021
0.352343
0.35253
0.352695
0.352785
0.352887
0.352932
0.353002
0.353024
0.353077
0.353088
0.353133
0.353132
0.353168