/*--------------------------------*- C++ -*----------------------------------*\
| =========                 |                                                 |
| \\      /  F ield         | OpenFOAM: The Open Source CFD Toolbox           |
|  \\    /   O peration     | Version:  v1906                                 |
|   \\  /    A nd           | Web:      www.OpenFOAM.com                      |
|    \\/     M anipulation  |                                                 |
\*---------------------------------------------------------------------------*/
FoamFile
{
    version     2.0;
    format      ascii;
    class       volScalarField;
    location    "2";
    object      pB;
}
// * * * * * * * * * * * * * * * * * * * * * * * * * * * * * * * * * * * * * //

dimensions      [1 1 -3 0 0 -1 0];


internalField   nonuniform List<scalar> 
4000
(
41.6826
96.9695
127.421
140.1
141.196
134.475
123.411
110.275
96.6375
83.4259
71.1746
60.1397
50.4088
41.9629
34.7227
28.5771
23.4028
19.0754
15.4768
12.4986
10.0443
8.02917
6.38004
5.03439
3.93934
3.05044
2.33046
1.74867
1.27941
0.901713
0.598284
0.354937
0.160168
0.00452653
-0.119637
-0.218482
-0.297104
-0.359453
-0.408888
-0.447963
-0.478813
-0.503129
-0.522241
-0.537239
-0.548997
-0.558157
-0.565329
-0.570872
-0.575198
-0.578529
-0.581114
-0.583105
-0.584648
-0.585829
-0.586757
-0.587454
-0.588018
-0.588432
-0.588772
-0.589017
-0.589214
-0.589344
-0.58944
-0.589477
-0.58949
-0.58944
-0.589366
-0.589226
-0.58905
-0.588794
-0.588477
-0.588045
-0.587498
-0.586762
-0.58581
-0.584537
-0.582867
-0.580643
-0.577712
-0.573815
-0.56868
-0.561893
-0.552998
-0.541377
-0.526332
-0.506998
-0.482434
-0.451607
-0.413574
-0.36764
-0.31383
-0.25349
-0.190475
-0.132643
-0.0939709
-0.0952234
-0.159335
-0.291816
-0.431519
-0.395221
44.9585
97.1496
126.448
138.89
139.975
133.373
122.452
109.459
95.9506
82.852
70.6983
59.7473
50.0879
41.7024
34.5131
28.4101
23.2711
18.973
15.3984
12.44
10.0019
7.99987
6.36141
5.02441
3.93632
3.05303
2.33756
1.75936
1.29298
0.917579
0.615974
0.374075
0.180451
0.0257172
-0.0977346
-0.196014
-0.274197
-0.336198
-0.385363
-0.424227
-0.454913
-0.479102
-0.498116
-0.513037
-0.524738
-0.533851
-0.54099
-0.546505
-0.550812
-0.554126
-0.5567
-0.55868
-0.560216
-0.561389
-0.562314
-0.563006
-0.563568
-0.563979
-0.564318
-0.564561
-0.564759
-0.564888
-0.564985
-0.565022
-0.565036
-0.564987
-0.564915
-0.564774
-0.564601
-0.564344
-0.564028
-0.563596
-0.56305
-0.562315
-0.561367
-0.560099
-0.558439
-0.556226
-0.553313
-0.549438
-0.544334
-0.537587
-0.528747
-0.517198
-0.502247
-0.483038
-0.458639
-0.42803
-0.390285
-0.344729
-0.291411
-0.231692
-0.169406
-0.112269
-0.0737716
-0.0733631
-0.131272
-0.248758
-0.365676
-0.329818
47.3508
97.1985
125.03
137.045
138.05
131.581
120.857
108.078
94.7704
81.8551
69.8639
59.0549
49.5182
41.2378
34.1376
28.1096
23.0335
18.7876
15.2562
12.3335
9.92452
7.94637
6.32734
5.00611
3.93078
3.05779
2.3506
1.77906
1.31801
0.946866
0.648658
0.409463
0.217984
0.064953
-0.0571555
-0.154371
-0.231718
-0.293061
-0.341709
-0.380171
-0.410542
-0.434484
-0.45331
-0.468082
-0.47967
-0.488693
-0.495765
-0.501227
-0.505493
-0.508775
-0.511325
-0.513285
-0.514807
-0.515966
-0.516883
-0.517565
-0.518123
-0.518529
-0.518866
-0.519106
-0.519303
-0.519431
-0.51953
-0.519566
-0.519583
-0.519535
-0.519465
-0.519326
-0.519154
-0.518898
-0.518584
-0.518152
-0.517609
-0.516878
-0.515938
-0.514681
-0.513039
-0.51085
-0.507971
-0.50414
-0.499095
-0.492425
-0.483689
-0.472274
-0.457501
-0.438522
-0.414422
-0.384201
-0.346957
-0.30204
-0.249522
-0.190762
-0.129519
-0.0732158
-0.0345222
-0.0308821
-0.0789018
-0.174758
-0.263183
-0.227311
48.1226
96.6007
122.945
134.388
135.265
128.954
118.492
106.008
92.9887
80.3397
68.5872
57.9885
48.6346
40.5112
33.5447
27.6296
22.648
18.481
15.015
12.1461
9.78146
7.83954
6.25004
4.95281
3.89693
3.03965
2.34513
1.78377
1.33088
0.966268
0.673277
0.438239
0.250064
0.099658
-0.0203743
-0.115946
-0.191997
-0.252321
-0.300166
-0.338
-0.367881
-0.39144
-0.409969
-0.424508
-0.435919
-0.444802
-0.451766
-0.457145
-0.461346
-0.464579
-0.46709
-0.469018
-0.470516
-0.471656
-0.472558
-0.473228
-0.473776
-0.474176
-0.474509
-0.474746
-0.474941
-0.475068
-0.475168
-0.475205
-0.475224
-0.475177
-0.475111
-0.474973
-0.474804
-0.47455
-0.474238
-0.473808
-0.47327
-0.472546
-0.471618
-0.47038
-0.468766
-0.466614
-0.463786
-0.460023
-0.45507
-0.448521
-0.439943
-0.428735
-0.414232
-0.395604
-0.371957
-0.342319
-0.305818
-0.261836
-0.210468
-0.153051
-0.0932033
-0.0378893
0.00138651
0.00983489
-0.0247537
-0.0931808
-0.148184
-0.107662
47.4511
95.0923
120.114
130.921
131.646
125.517
115.376
103.264
90.6142
78.3111
66.8712
56.5493
47.4367
39.5211
32.7317
26.9664
22.1107
18.0485
14.6696
11.8725
9.56693
7.67336
6.12332
4.85819
3.82833
2.9921
2.31456
1.76685
1.32493
0.969098
0.683129
0.453692
0.269973
0.123109
0.00588342
-0.0874651
-0.161761
-0.220702
-0.267458
-0.30444
-0.333651
-0.356688
-0.374812
-0.389033
-0.400199
-0.408891
-0.415707
-0.420972
-0.425084
-0.428249
-0.430706
-0.432592
-0.434057
-0.435169
-0.436051
-0.436705
-0.437241
-0.437632
-0.437958
-0.43819
-0.438383
-0.438509
-0.438609
-0.438647
-0.438668
-0.438624
-0.438561
-0.438427
-0.438261
-0.43801
-0.4377
-0.437274
-0.436743
-0.436029
-0.435119
-0.433905
-0.432328
-0.430228
-0.427469
-0.423799
-0.418968
-0.412581
-0.404216
-0.393286
-0.379145
-0.360984
-0.337941
-0.309073
-0.273548
-0.230783
-0.18089
-0.125163
-0.0670169
-0.0128127
0.0273811
0.0418435
0.0230695
-0.0147331
-0.0338133
0.0139493
45.7714
92.6176
116.493
126.659
127.228
121.306
111.541
99.8723
87.6687
75.7875
64.7312
54.7503
45.9355
38.277
31.7071
26.1276
21.4278
17.4959
14.225
11.5173
9.28514
7.45176
5.95086
4.72572
3.72832
2.91835
2.26201
1.73137
1.30316
0.958328
0.681155
0.458742
0.280615
0.138199
0.0245042
-0.0660471
-0.13813
-0.195328
-0.240709
-0.276612
-0.304978
-0.327352
-0.344961
-0.358779
-0.369632
-0.378081
-0.384707
-0.389827
-0.393826
-0.396903
-0.399291
-0.401123
-0.402546
-0.403624
-0.40448
-0.405113
-0.405633
-0.406013
-0.40633
-0.406557
-0.406746
-0.40687
-0.40697
-0.407008
-0.407032
-0.406992
-0.406932
-0.406803
-0.406641
-0.406394
-0.406088
-0.405668
-0.405144
-0.404445
-0.403556
-0.402375
-0.400844
-0.398808
-0.396136
-0.392581
-0.387904
-0.381719
-0.37362
-0.363037
-0.349346
-0.331768
-0.309471
-0.281555
-0.247228
-0.205946
-0.157831
-0.104112
-0.0479416
0.00503195
0.0463584
0.0675742
0.0658158
0.059735
0.077038
0.131063
43.4384
89.2293
112.074
121.619
122.046
116.358
107.022
95.8619
84.1775
72.7901
62.1851
52.6066
44.1443
36.7902
30.4805
25.1213
20.6067
16.8295
13.6871
11.0855
8.94072
7.17897
5.73657
4.55908
3.60036
2.82172
2.19068
1.68043
1.26863
0.936944
0.670301
0.456302
0.284882
0.147806
0.0383515
-0.0488374
-0.118258
-0.173356
-0.217079
-0.25168
-0.279023
-0.300596
-0.31758
-0.330908
-0.341381
-0.349535
-0.35593
-0.360873
-0.364732
-0.367703
-0.370007
-0.371772
-0.373144
-0.374181
-0.375005
-0.375614
-0.376115
-0.376481
-0.376787
-0.377007
-0.377191
-0.377312
-0.377411
-0.377451
-0.377477
-0.377441
-0.377385
-0.377261
-0.377103
-0.376861
-0.376561
-0.376148
-0.375635
-0.374953
-0.37409
-0.372948
-0.371473
-0.369513
-0.366945
-0.36353
-0.359035
-0.353092
-0.345309
-0.33514
-0.321986
-0.305099
-0.283688
-0.256895
-0.223977
-0.184427
-0.138372
-0.0869535
-0.033019
0.0185734
0.0610762
0.0892789
0.104664
0.129673
0.181844
0.238792
40.6989
85.0273
106.876
115.828
116.136
110.713
101.853
91.2644
80.1668
69.3412
59.2518
50.1342
42.0762
35.0718
29.0611
23.9554
19.654
16.0548
13.0604
10.5812
8.53707
6.85791
5.48302
4.36052
3.44648
2.70404
2.10226
1.61561
1.22279
0.906353
0.651922
0.447689
0.28406
0.153191
0.048671
-0.0346029
-0.100921
-0.15357
-0.195357
-0.228435
-0.254581
-0.275215
-0.291465
-0.304219
-0.314245
-0.32205
-0.328174
-0.332907
-0.336602
-0.339446
-0.341651
-0.343338
-0.344649
-0.345638
-0.346425
-0.347006
-0.347484
-0.347833
-0.348126
-0.348337
-0.348515
-0.348632
-0.348731
-0.348772
-0.3488
-0.348768
-0.348717
-0.348598
-0.348445
-0.34821
-0.347916
-0.347512
-0.347012
-0.346351
-0.345519
-0.344424
-0.343012
-0.341142
-0.338693
-0.335439
-0.331156
-0.325493
-0.318076
-0.308384
-0.295848
-0.279757
-0.259363
-0.233858
-0.202547
-0.164962
-0.121229
-0.072387
-0.0209449
0.0290669
0.0725995
0.107535
0.139257
0.193166
0.276845
0.332604
37.7158
80.1261
100.941
109.321
109.536
104.409
96.0732
86.1127
75.6651
65.4647
55.9513
47.3498
39.7453
33.1335
27.4588
22.638
18.5763
15.1774
12.3495
10.0079
8.07724
6.49111
5.19229
4.13179
3.26814
2.56655
1.99782
1.53782
1.16647
0.867278
0.626672
0.433504
0.278711
0.154888
0.0559728
-0.0228508
-0.0856392
-0.135497
-0.175077
-0.206418
-0.231197
-0.250757
-0.266167
-0.278262
-0.287774
-0.29518
-0.300991
-0.305483
-0.308989
-0.311687
-0.313777
-0.315374
-0.316615
-0.317549
-0.318293
-0.318842
-0.319293
-0.319624
-0.319901
-0.320102
-0.320272
-0.320385
-0.320482
-0.320524
-0.320555
-0.320527
-0.320481
-0.320367
-0.32022
-0.319992
-0.319706
-0.319313
-0.31883
-0.318193
-0.317397
-0.316353
-0.315015
-0.313245
-0.310932
-0.307859
-0.303815
-0.298468
-0.291463
-0.282309
-0.270469
-0.255273
-0.236021
-0.211958
-0.18244
-0.147039
-0.105875
-0.0598684
-0.0111768
0.036998
0.081229
0.1222
0.168615
0.247866
0.358173
0.408965
34.5913
74.638
94.3258
102.139
102.286
97.489
89.7206
80.4418
70.7027
61.1867
52.3056
44.2719
37.1669
30.9881
25.6841
21.1778
17.3807
14.2032
11.5591
9.36977
7.56444
6.08118
4.8665
3.87461
3.06676
2.41042
1.8783
1.44787
1.10033
0.82028
0.595034
0.414167
0.269204
0.153226
0.0605562
-0.0133041
-0.0721518
-0.118891
-0.156003
-0.185398
-0.208646
-0.227
-0.241466
-0.252821
-0.261755
-0.26871
-0.274168
-0.278388
-0.28168
-0.284212
-0.286173
-0.287669
-0.288832
-0.289704
-0.290399
-0.290911
-0.291333
-0.291642
-0.291902
-0.292091
-0.292252
-0.29236
-0.292455
-0.292497
-0.29253
-0.292507
-0.292465
-0.292358
-0.292217
-0.291997
-0.29172
-0.291341
-0.290876
-0.290267
-0.289511
-0.288526
-0.287269
-0.285611
-0.283448
-0.280576
-0.276798
-0.2718
-0.265252
-0.256692
-0.245621
-0.231414
-0.213421
-0.190944
-0.163394
-0.130381
-0.092011
-0.0490846
-0.00340295
0.0426223
0.0870466
0.132958
0.191693
0.29164
0.422606
0.465598
31.3862
68.6641
87.0937
94.3303
94.4334
89.9967
82.837
74.2892
65.3123
56.5351
48.3384
40.9203
34.3577
28.6493
23.7485
19.5842
16.0751
13.1384
10.6946
8.6709
7.00209
5.63091
4.50792
3.59083
2.84381
2.23684
1.74469
1.34653
1.02502
0.765892
0.557446
0.390043
0.255848
0.148467
0.0626484
-0.00576329
-0.0602817
-0.103591
-0.137988
-0.165239
-0.186797
-0.20382
-0.217242
-0.227778
-0.236071
-0.242526
-0.247593
-0.251509
-0.254563
-0.256912
-0.258729
-0.260113
-0.261188
-0.261991
-0.262633
-0.263105
-0.263494
-0.263779
-0.264019
-0.264194
-0.264345
-0.264448
-0.26454
-0.264582
-0.264617
-0.264598
-0.264561
-0.264461
-0.264326
-0.264115
-0.263849
-0.263485
-0.263041
-0.262464
-0.261753
-0.260832
-0.259664
-0.258128
-0.256129
-0.253476
-0.249987
-0.24537
-0.23932
-0.231409
-0.221175
-0.208044
-0.191419
-0.170663
-0.145241
-0.114802
-0.0794338
-0.0398156
0.00259357
0.0461046
0.0900617
0.139483
0.207588
0.322806
0.467812
0.50136
28.1356
62.2922
79.3128
85.9491
86.0256
81.9789
75.4661
67.6942
59.5286
51.5396
44.075
37.3166
31.3357
26.1323
21.6643
17.8676
14.6679
11.9899
9.76142
7.91589
6.39391
5.14329
4.11896
3.28238
2.60087
2.04708
1.59799
1.23464
0.941186
0.704647
0.514342
0.361485
0.23893
0.140849
0.0624453
-6.43678e-05
-0.0498902
-0.0894798
-0.120928
-0.14585
-0.165568
-0.181143
-0.193427
-0.203069
-0.210661
-0.216569
-0.221207
-0.224792
-0.227585
-0.229732
-0.231391
-0.232651
-0.233631
-0.23436
-0.234943
-0.23537
-0.235724
-0.235982
-0.2362
-0.236361
-0.236501
-0.236596
-0.236685
-0.236727
-0.236763
-0.236748
-0.236716
-0.236623
-0.236495
-0.236293
-0.236039
-0.235692
-0.235272
-0.23473
-0.234069
-0.233218
-0.232145
-0.230742
-0.228919
-0.226503
-0.223325
-0.219119
-0.213604
-0.206391
-0.197058
-0.185083
-0.169926
-0.151013
-0.127865
-0.100166
-0.0679905
-0.0318949
0.00697629
0.0475644
0.090269
0.141516
0.215639
0.340227
0.492402
0.516047
24.8586
55.5964
71.051
77.0523
77.1146
73.4843
67.6534
60.6981
53.3878
46.2319
39.5423
33.4833
28.1199
23.4528
19.4448
16.0387
13.168
10.7652
8.76564
7.10962
5.74386
4.62154
3.70223
2.95137
2.33964
1.8425
1.43931
1.11306
0.849545
0.637108
0.466171
0.328853
0.218739
0.130604
0.0601363
0.00394644
-0.0408517
-0.0764524
-0.104737
-0.127157
-0.144899
-0.158915
-0.169974
-0.178652
-0.185489
-0.190807
-0.194981
-0.198206
-0.200717
-0.202644
-0.204132
-0.20526
-0.206136
-0.206784
-0.207304
-0.207683
-0.207998
-0.208227
-0.208423
-0.208566
-0.208694
-0.208782
-0.208866
-0.208908
-0.208945
-0.208934
-0.208906
-0.20882
-0.2087
-0.208508
-0.208267
-0.20794
-0.207546
-0.207042
-0.206434
-0.205659
-0.204689
-0.203426
-0.201792
-0.199627
-0.196781
-0.193012
-0.188068
-0.181597
-0.173223
-0.162476
-0.148879
-0.131918
-0.111175
-0.0863674
-0.0575547
-0.0251826
0.00988555
0.047112
0.0876934
0.138921
0.215487
0.343356
0.495908
0.510223
21.5656
48.6389
62.3747
67.6992
67.7548
64.5642
59.4464
53.3439
46.928
40.645
34.7688
29.4446
24.7305
20.6277
17.104
14.1091
11.5849
9.47207
7.71366
6.25732
5.05619
4.0691
3.26052
2.60005
2.06192
1.62456
1.26982
0.982747
0.750847
0.563878
0.413418
0.292534
0.195586
0.11798
0.055919
0.00642754
-0.0330387
-0.0644065
-0.089332
-0.109093
-0.124734
-0.137091
-0.146844
-0.154497
-0.160527
-0.165214
-0.168894
-0.171733
-0.173941
-0.175634
-0.176939
-0.177924
-0.178689
-0.179252
-0.179705
-0.180032
-0.180306
-0.180504
-0.180674
-0.1808
-0.180915
-0.180994
-0.181074
-0.181114
-0.181152
-0.181144
-0.181121
-0.181041
-0.180929
-0.180748
-0.180522
-0.180216
-0.179851
-0.179389
-0.178838
-0.178142
-0.177282
-0.176167
-0.174731
-0.172831
-0.170336
-0.167028
-0.162686
-0.156998
-0.149634
-0.14018
-0.128221
-0.113311
-0.0950874
-0.0733058
-0.0480105
-0.0195477
0.0114588
0.0448724
0.0824191
0.131716
0.207099
0.33224
0.478727
0.485083
18.2622
41.4716
53.3479
57.9507
58.0026
55.2714
50.8941
45.6761
40.1889
34.8132
29.7839
25.2256
21.1887
17.6748
14.6566
12.0911
9.92872
8.11869
6.61222
5.3645
4.33539
3.48963
2.79679
2.23081
1.76965
1.39482
1.09077
0.844699
0.645903
0.485608
0.356602
0.252945
0.169802
0.103243
0.0500058
0.00754856
-0.0263157
-0.0532338
-0.0746264
-0.0915892
-0.105017
-0.115626
-0.124003
-0.130571
-0.13575
-0.139771
-0.142927
-0.145358
-0.147246
-0.14869
-0.149801
-0.150634
-0.151283
-0.151755
-0.152137
-0.15241
-0.15264
-0.152805
-0.152948
-0.153055
-0.153156
-0.153226
-0.1533
-0.153339
-0.153377
-0.153372
-0.153352
-0.15328
-0.153175
-0.153007
-0.152797
-0.152513
-0.15218
-0.151762
-0.151272
-0.15066
-0.149914
-0.148955
-0.147726
-0.146104
-0.143975
-0.141148
-0.137436
-0.132565
-0.126256
-0.118153
-0.107903
-0.0951288
-0.0795252
-0.0608863
-0.0392442
-0.0148589
0.0118403
0.0409968
0.0746024
0.120089
0.190776
0.3075
0.44204
0.442325
14.9513
34.1384
44.0311
47.8681
47.9162
45.6606
42.0472
37.7407
33.2112
28.7724
24.6182
20.8523
17.5165
14.6125
12.1178
9.99732
8.20991
6.7137
5.46838
4.43693
3.58617
2.88695
2.31414
1.84619
1.46488
1.15493
0.903497
0.699996
0.535578
0.402993
0.296282
0.210531
0.141746
0.0866786
0.0426252
0.00749206
-0.0205369
-0.0428176
-0.060527
-0.0745705
-0.085689
-0.0944714
-0.101409
-0.106845
-0.111133
-0.114456
-0.117063
-0.119067
-0.120619
-0.121801
-0.122709
-0.123384
-0.12391
-0.124287
-0.124595
-0.124811
-0.124995
-0.125125
-0.125241
-0.125328
-0.125414
-0.125474
-0.125542
-0.125579
-0.125616
-0.125613
-0.125598
-0.125532
-0.125436
-0.12528
-0.125087
-0.124828
-0.124528
-0.124157
-0.123731
-0.123207
-0.12258
-0.121782
-0.120769
-0.119434
-0.117684
-0.115357
-0.112297
-0.108274
-0.103058
-0.0963537
-0.0878737
-0.0773072
-0.0644098
-0.0490131
-0.0311411
-0.010982
0.0111854
0.0356675
0.0644752
0.104388
0.167136
0.270281
0.387704
0.384054
11.6346
26.6771
34.4818
37.5127
37.5549
35.7878
32.9574
29.5846
26.0367
22.559
19.3035
16.3516
13.7366
11.4597
9.50366
7.84092
6.43932
5.26604
4.28948
3.48061
2.81343
2.26507
1.81583
1.44882
1.14974
0.906633
0.7094
0.549766
0.420782
0.316766
0.233046
0.165768
0.111797
0.0685919
0.034021
0.00645315
-0.0155464
-0.0330334
-0.0469342
-0.0579576
-0.0666854
-0.073577
-0.0790243
-0.0832857
-0.0866492
-0.0892485
-0.0912857
-0.0928449
-0.0940488
-0.0949589
-0.0956549
-0.0961656
-0.0965644
-0.0968431
-0.0970735
-0.0972301
-0.0973667
-0.0974612
-0.0975487
-0.097614
-0.0976855
-0.0977351
-0.0977963
-0.0978297
-0.0978659
-0.0978652
-0.0978526
-0.0977937
-0.0977061
-0.0975638
-0.0973891
-0.0971559
-0.0968921
-0.0965697
-0.0962107
-0.0957782
-0.0952738
-0.0946419
-0.0938504
-0.0928112
-0.0914517
-0.0896386
-0.08725
-0.0840995
-0.0800087
-0.0747428
-0.0680816
-0.0597827
-0.0496619
-0.0375895
-0.0235848
-0.00777787
0.00966168
0.0290976
0.0523428
0.0851215
0.137082
0.222191
0.318153
0.312695
8.31363
19.1205
24.7549
26.9457
26.9789
25.7101
23.6777
21.256
18.7084
16.2107
13.8721
11.7513
9.87222
8.23605
6.83037
5.63543
4.62813
3.78491
3.08307
2.50173
2.02222
1.62811
1.30522
1.04143
0.826455
0.651715
0.509935
0.395187
0.302468
0.227695
0.167513
0.119152
0.0803557
0.0493036
0.0244506
0.00463798
-0.011179
-0.023749
-0.0337422
-0.0416658
-0.0479394
-0.0528888
-0.0568041
-0.0598582
-0.0622711
-0.0641254
-0.0655763
-0.0666778
-0.0675227
-0.0681527
-0.0686308
-0.0689719
-0.0692398
-0.0694175
-0.0695686
-0.0696642
-0.0697519
-0.0698095
-0.0698678
-0.0699113
-0.0699671
-0.0700058
-0.0700595
-0.0700893
-0.070124
-0.0701247
-0.0701148
-0.0700625
-0.069984
-0.0698556
-0.0697004
-0.0694945
-0.069268
-0.0689968
-0.0687065
-0.0683678
-0.0679893
-0.0675273
-0.0669625
-0.0662254
-0.0652649
-0.0639769
-0.0622747
-0.0600159
-0.057075
-0.0532789
-0.048475
-0.0424904
-0.0352013
-0.0265174
-0.0164565
-0.00510276
0.00744827
0.0215297
0.0385761
0.062929
0.101768
0.165229
0.236288
0.230916
4.98947
11.498
14.9027
16.2279
16.2493
15.4854
14.2617
12.8036
11.2696
9.76535
8.35681
7.07925
5.94725
4.96151
4.11459
3.39466
2.78776
2.27973
1.85688
1.50663
1.21774
0.980293
0.785763
0.626839
0.497308
0.392034
0.306606
0.237477
0.181617
0.136572
0.100324
0.0711994
0.047837
0.0291476
0.0141822
0.00226168
-0.00726227
-0.0148261
-0.0208404
-0.0256068
-0.0293799
-0.0323501
-0.0347035
-0.0365263
-0.0379694
-0.0390634
-0.0399159
-0.0405501
-0.0410285
-0.0413724
-0.041628
-0.0417961
-0.0419303
-0.0420049
-0.042075
-0.0421084
-0.0421464
-0.0421664
-0.0421952
-0.0422166
-0.0422563
-0.0422836
-0.0423293
-0.0423548
-0.0423874
-0.0423891
-0.0423817
-0.0423357
-0.0422666
-0.0421526
-0.0420179
-0.0418406
-0.0416528
-0.0414342
-0.0412146
-0.0409715
-0.040721
-0.0404318
-0.0400971
-0.0396665
-0.0391111
-0.0383563
-0.0373508
-0.0359976
-0.0342242
-0.0319203
-0.0290014
-0.0253646
-0.0209464
-0.015697
-0.00963538
-0.00280866
0.00473465
0.0132304
0.0236013
0.0385641
0.0625494
0.101707
0.145371
0.14157
1.66338
3.83702
4.97605
5.41977
5.42726
5.17231
4.76372
4.27675
3.76427
3.26171
2.79106
2.36411
1.98578
1.65631
1.37322
1.13263
0.929807
0.760059
0.618777
0.501757
0.405264
0.325943
0.260972
0.207898
0.164626
0.129481
0.100946
0.0778761
0.059236
0.0442122
0.0321352
0.0224401
0.0146679
0.00846747
0.00349176
-0.000453919
-0.00361823
-0.006122
-0.00811437
-0.00968866
-0.0109336
-0.0119022
-0.0126755
-0.0132525
-0.0137139
-0.0140382
-0.0142849
-0.0144458
-0.0145532
-0.0146074
-0.0146379
-0.0146307
-0.0146296
-0.0145998
-0.0145881
-0.0145586
-0.0145464
-0.0145286
-0.0145278
-0.0145268
-0.0145502
-0.0145657
-0.0146031
-0.0146236
-0.0146537
-0.014656
-0.0146506
-0.0146107
-0.0145513
-0.0144523
-0.0143388
-0.014191
-0.0140431
-0.0138782
-0.0137305
-0.0135844
-0.0134635
-0.0133485
-0.013246
-0.0131246
-0.0129776
-0.0127604
-0.0124579
-0.0120182
-0.0114228
-0.0106245
-0.0096074
-0.0083385
-0.0068152
-0.00502806
-0.00299898
-0.000744256
0.00171809
0.00448534
0.00788561
0.0128631
0.0209288
0.0341574
0.0489221
0.047636
-1.66336
-3.83672
-4.97527
-5.41845
-5.42557
-5.17028
-4.76163
-4.27502
-3.76321
-3.26141
-2.79154
-2.36545
-1.98789
-1.65913
-1.37669
-1.13649
-0.934015
-0.764456
-0.623307
-0.50638
-0.40989
-0.330591
-0.265601
-0.212494
-0.169236
-0.134031
-0.105492
-0.0823544
-0.0636549
-0.04856
-0.0363866
-0.0265879
-0.0187179
-0.0123875
-0.00733954
-0.00328297
-6.55459e-05
0.00250885
0.00455272
0.00618203
0.00747454
0.00851486
0.00932799
0.0100019
0.0105263
0.010975
0.0113367
0.0116514
0.0119163
0.0121529
0.0123483
0.0125314
0.0126685
0.0128032
0.0128971
0.0129896
0.0130519
0.0131075
0.0131375
0.0131609
0.0131541
0.0131505
0.0131219
0.0131067
0.0130798
0.0130773
0.0130809
0.0131148
0.0131643
0.013248
0.0133398
0.0134572
0.0135646
0.0136748
0.0137499
0.0137982
0.013789
0.0137293
0.0135992
0.0134108
0.0131485
0.0128271
0.0124249
0.0119486
0.0113626
0.0106509
0.0097607
0.00865476
0.00727516
0.00559074
0.00357606
0.00124383
-0.00139924
-0.00440842
-0.00807829
-0.013287
-0.0215002
-0.0347467
-0.0493856
-0.0478348
-4.98944
-11.4977
-14.9019
-16.2266
-16.2476
-15.4834
-14.2596
-12.8019
-11.2685
-9.76507
-8.3573
-7.08061
-5.94937
-4.96434
-4.11806
-3.39852
-2.79197
-2.28413
-1.86141
-1.51125
-1.22237
-0.984939
-0.79039
-0.631431
-0.501914
-0.396579
-0.311148
-0.24195
-0.186031
-0.140916
-0.104571
-0.0753438
-0.0518843
-0.0330659
-0.0180291
-0.00599821
0.00357828
0.0112129
0.0172783
0.0220995
0.0259199
0.0289616
0.0313553
0.0332755
0.0347824
0.0360014
0.0369691
0.0377577
0.0383933
0.0389195
0.0393397
0.0396978
0.0399705
0.0402096
0.0403854
0.0405405
0.0406524
0.0407454
0.0408041
0.0408496
0.0408592
0.0408677
0.0408482
0.0408388
0.0408156
0.0408132
0.0408151
0.0408432
0.0408827
0.0409509
0.0410205
0.0411072
0.0411734
0.0412287
0.0412309
0.0411814
0.0410423
0.0408085
0.0404467
0.0399501
0.0392802
0.0384223
0.0373183
0.0359294
0.0341658
0.0319488
0.0291567
0.0256824
0.0214076
0.0162607
0.0102134
0.00330963
-0.00441353
-0.0131499
-0.023789
-0.0389817
-0.0631136
-0.102289
-0.145828
-0.141766
-8.31359
-19.1201
-24.754
-26.9444
-26.9772
-25.7081
-23.6756
-21.2544
-18.7074
-16.2104
-13.8726
-11.7526
-9.87436
-8.2389
-6.83385
-5.6393
-4.63234
-3.78931
-3.0876
-2.50635
-2.02685
-1.63275
-1.30984
-1.04602
-0.831051
-0.65625
-0.514467
-0.399651
-0.306873
-0.232029
-0.171753
-0.12329
-0.0843975
-0.0532185
-0.0282958
-0.00837372
0.00749464
0.0201357
0.0301792
0.0381574
0.0444776
0.049498
0.0534545
0.0566068
0.0590851
0.0610658
0.0626323
0.0638892
0.0648908
0.065703
0.0663449
0.0668759
0.0672825
0.067625
0.0678817
0.0680985
0.0682591
0.0683886
0.0684751
0.0685421
0.0685681
0.0685888
0.0685784
0.0685751
0.068556
0.0685542
0.0685546
0.068577
0.0686064
0.0686589
0.0687062
0.0687621
0.068787
0.0687873
0.0687168
0.06857
0.068302
0.0678959
0.0673049
0.0665034
0.0654305
0.0640418
0.0622431
0.0599505
0.0570204
0.0533117
0.0486343
0.0428114
0.0356647
0.0270829
0.0170364
0.00560641
-0.00712274
-0.0214421
-0.0387539
-0.0633341
-0.102318
-0.165797
-0.236733
-0.231106
-11.6346
-26.6767
-34.481
-37.5114
-37.5532
-35.7858
-32.9554
-29.583
-26.0358
-22.5588
-19.3041
-16.3531
-13.7387
-11.4626
-9.50717
-7.84481
-6.44354
-5.27045
-4.29401
-3.48523
-2.81804
-2.2697
-1.82044
-1.45339
-1.15432
-0.911153
-0.713917
-0.554215
-0.425174
-0.321089
-0.237274
-0.169896
-0.115831
-0.0725019
-0.0378635
-0.0101876
0.0118616
0.02942
0.0433697
0.0544472
0.0632209
0.0701828
0.0756727
0.0800334
0.0834645
0.0861922
0.0883458
0.0900616
0.0914219
0.0925139
0.093373
0.0940729
0.0946109
0.0950547
0.0953907
0.0956678
0.0958756
0.0960405
0.0961539
0.0962417
0.0962835
0.0963163
0.0963151
0.0963183
0.0963036
0.0963027
0.0963017
0.0963186
0.0963378
0.0963746
0.0963997
0.0964249
0.0964087
0.0963544
0.0962119
0.095969
0.095574
0.0949983
0.0941821
0.0930811
0.091612
0.0897017
0.0872198
0.084038
0.0799598
0.0747818
0.0682467
0.0601083
0.0501286
0.0381576
0.0241672
0.00828529
-0.00932979
-0.0289998
-0.0525061
-0.0855082
-0.137611
-0.222738
-0.318581
-0.312877
-14.9512
-34.138
-44.0302
-47.8668
-47.9145
-45.6587
-42.0452
-37.7391
-33.2103
-28.7723
-24.6189
-20.8538
-17.5187
-14.6154
-12.1214
-10.0012
-8.21415
-6.71811
-5.47292
-4.44154
-3.59078
-2.89158
-2.31874
-1.85075
-1.46944
-1.15944
-0.907995
-0.704426
-0.539953
-0.407299
-0.300494
-0.214647
-0.145769
-0.0905821
-0.046464
-0.0112247
0.0168517
0.0392039
0.0569606
0.0710575
0.0822208
0.0910728
0.0980551
0.103592
0.10795
0.111404
0.114128
0.11629
0.117999
0.119363
0.120432
0.121296
0.121962
0.122504
0.122917
0.123252
0.123506
0.123705
0.123844
0.123951
0.124008
0.124053
0.124061
0.124071
0.124061
0.124061
0.124059
0.12407
0.124079
0.124101
0.124104
0.124099
0.124042
0.123934
0.123721
0.123383
0.122864
0.122123
0.121087
0.119693
0.117838
0.115418
0.112269
0.108218
0.103017
0.0964009
0.0880465
0.0776388
0.0648807
0.0495843
0.0317263
0.011494
-0.0108456
-0.0355566
-0.06462
-0.104752
-0.167638
-0.2708
-0.38811
-0.384226
-18.2621
-41.4711
-53.347
-57.9494
-58.001
-55.2695
-50.8923
-45.6746
-40.1881
-34.8132
-29.7846
-25.2271
-21.191
-17.6778
-14.6601
-12.095
-9.93298
-8.12311
-6.61676
-5.36912
-4.34
-3.49424
-2.80137
-2.23536
-1.7742
-1.3993
-1.09525
-0.849108
-0.650258
-0.489895
-0.360797
-0.257045
-0.173813
-0.107138
-0.0538401
-0.0112787
0.0226302
0.0496197
0.0710574
0.0880729
0.101545
0.112222
0.120645
0.127316
0.132568
0.136724
0.139998
0.14259
0.144633
0.146259
0.147531
0.148553
0.149341
0.149978
0.150465
0.150857
0.151153
0.151385
0.151548
0.151674
0.151746
0.151802
0.151819
0.151835
0.15183
0.151832
0.151828
0.151835
0.151834
0.15184
0.151822
0.151787
0.15169
0.15153
0.151247
0.150818
0.150178
0.149276
0.148027
0.14635
0.14412
0.141207
0.13741
0.132516
0.126224
0.11821
0.108085
0.0954677
0.0800009
0.0614608
0.0398323
0.0153759
-0.0114913
-0.0408706
-0.074725
-0.120423
-0.191246
-0.307987
-0.442419
-0.442483
-21.5655
-48.6384
-62.3738
-67.6979
-67.7532
-64.5624
-59.4446
-53.3425
-46.9273
-40.645
-34.7695
-29.4462
-24.7329
-20.6307
-17.1076
-14.1131
-11.5892
-9.47651
-7.71821
-6.26194
-5.06079
-4.0737
-3.26509
-2.60457
-2.06644
-1.62902
-1.27427
-0.987131
-0.755178
-0.568142
-0.417592
-0.296617
-0.199583
-0.121866
-0.0597477
-0.0101544
0.0293531
0.0607921
0.0857598
0.105573
0.121256
0.133681
0.143483
0.151239
0.157347
0.162172
0.165972
0.168974
0.171337
0.173212
0.174678
0.17585
0.176755
0.177483
0.17804
0.178485
0.178822
0.179084
0.17927
0.179413
0.179499
0.179566
0.179592
0.179615
0.179615
0.179618
0.179614
0.179615
0.179605
0.179596
0.179557
0.179493
0.179358
0.179146
0.178797
0.178279
0.177521
0.176465
0.17501
0.173062
0.170472
0.167084
0.162664
0.156956
0.149612
0.140249
0.128414
0.113658
0.0955683
0.0738836
0.0486013
0.0200696
-0.0110999
-0.044729
-0.0825166
-0.132018
-0.207531
-0.332689
-0.479075
-0.485226
-24.8584
-55.5959
-71.05
-77.0509
-77.1131
-73.4826
-67.6518
-60.6968
-53.3871
-46.232
-39.5432
-33.485
-28.1223
-23.4558
-19.4485
-16.0426
-13.1723
-10.7697
-8.7702
-7.11424
-5.74846
-4.62613
-3.70679
-2.95587
-2.34414
-1.84693
-1.44374
-1.11742
-0.853851
-0.641347
-0.470322
-0.332917
-0.222721
-0.13448
-0.0639585
-0.00766932
0.0371663
0.0728374
0.101161
0.123632
0.141415
0.155498
0.166608
0.175393
0.18231
0.187769
0.192066
0.195457
0.198123
0.200233
0.201881
0.203195
0.204211
0.205023
0.205647
0.206142
0.206517
0.206807
0.207014
0.207174
0.207272
0.207349
0.207384
0.207413
0.207418
0.207423
0.207418
0.207415
0.207396
0.207373
0.207313
0.207222
0.207049
0.206788
0.206374
0.205771
0.204902
0.203697
0.202048
0.19984
0.196907
0.193065
0.18805
0.181565
0.173215
0.162559
0.149084
0.132274
0.111661
0.086948
0.0581474
0.0257091
-0.00951666
-0.0469504
-0.0877635
-0.139187
-0.215877
-0.343763
-0.496221
-0.51035
-28.1354
-62.2916
-79.3118
-85.9478
-86.0241
-81.9772
-75.4646
-67.693
-59.528
-51.5398
-44.076
-37.3183
-31.3382
-26.1354
-21.668
-17.8716
-14.6722
-11.9944
-9.76598
-7.9205
-6.3985
-5.14787
-4.1235
-3.28686
-2.60535
-2.05149
-1.60239
-1.23897
-0.945465
-0.708859
-0.518467
-0.365528
-0.242894
-0.144713
-0.0662599
-0.0036537
0.0462055
0.0858643
0.117347
0.142319
0.162077
0.177719
0.190056
0.199806
0.207482
0.213537
0.218299
0.222054
0.225002
0.227333
0.229152
0.230598
0.231717
0.232608
0.233294
0.233834
0.234245
0.234561
0.234787
0.234962
0.235072
0.235159
0.235201
0.235236
0.235247
0.235254
0.235248
0.23524
0.235213
0.235177
0.235097
0.234979
0.234772
0.234463
0.233988
0.233304
0.232329
0.230984
0.229149
0.226697
0.223439
0.219169
0.213591
0.20637
0.197064
0.185181
0.170144
0.151379
0.128357
0.100749
0.068584
0.0324249
-0.00659775
-0.0473841
-0.0903102
-0.141743
-0.215985
-0.34059
-0.492678
-0.516156
-31.386
-68.6634
-87.0927
-94.329
-94.4319
-89.9952
-82.8356
-74.2881
-65.3119
-56.5354
-48.3395
-40.9222
-34.3603
-28.6525
-23.7522
-19.5883
-16.0795
-13.1429
-10.6992
-8.67551
-7.00668
-5.63548
-4.51244
-3.59529
-2.84827
-2.24122
-1.74906
-1.35083
-1.02927
-0.770076
-0.561545
-0.394064
-0.259794
-0.152319
-0.0664544
0.00205081
0.0565979
0.0999755
0.134403
0.161703
0.183299
0.200388
0.213867
0.224512
0.232892
0.239498
0.244692
0.248782
0.251992
0.254527
0.256504
0.258071
0.259286
0.26025
0.260992
0.261575
0.262017
0.262357
0.262601
0.262789
0.26291
0.263005
0.263056
0.263096
0.263111
0.263121
0.263114
0.263103
0.263068
0.263019
0.262921
0.262778
0.262537
0.262184
0.261651
0.260891
0.259816
0.258339
0.256331
0.25365
0.250089
0.245418
0.239311
0.2314
0.221197
0.208158
0.191651
0.171039
0.145738
0.115385
0.0800268
0.0403478
-0.0022063
-0.0459058
-0.0900734
-0.139671
-0.207887
-0.323121
-0.468049
-0.50145
-34.591
-74.6372
-94.3246
-102.137
-102.285
-97.4875
-89.7193
-80.4409
-70.7024
-61.1871
-52.3068
-44.2738
-37.1695
-30.9913
-25.6879
-21.1819
-17.3851
-14.2077
-11.5637
-9.37438
-7.56902
-6.08575
-4.87101
-3.87907
-3.0712
-2.41478
-1.88265
-1.45214
-1.10455
-0.824436
-0.599105
-0.418165
-0.273131
-0.157065
-0.0643528
0.00959789
0.0684692
0.115275
0.152413
0.181855
0.20514
0.223559
0.238084
0.249551
0.258576
0.265686
0.271274
0.275672
0.279121
0.281841
0.283963
0.285642
0.286943
0.287973
0.288766
0.289387
0.289857
0.290219
0.290478
0.290679
0.290809
0.290913
0.29097
0.291016
0.291036
0.291047
0.29104
0.291025
0.290983
0.290923
0.290808
0.290641
0.290369
0.289974
0.289387
0.288556
0.287388
0.28579
0.283622
0.280728
0.276886
0.271844
0.265249
0.256696
0.24566
0.231546
0.213669
0.19133