/*--------------------------------*- C++ -*----------------------------------*\
| =========                 |                                                 |
| \\      /  F ield         | OpenFOAM: The Open Source CFD Toolbox           |
|  \\    /   O peration     | Version:  v1906                                 |
|   \\  /    A nd           | Web:      www.OpenFOAM.com                      |
|    \\/     M anipulation  |                                                 |
\*---------------------------------------------------------------------------*/
FoamFile
{
    version     2.0;
    format      ascii;
    class       surfaceScalarField;
    location    "2";
    object      phi;
}
// * * * * * * * * * * * * * * * * * * * * * * * * * * * * * * * * * * * * * //

dimensions      [0 3 -1 0 0 0 0];
oriented        oriented;


internalField   nonuniform List<scalar> 
7860
(
0.00223088
0.00276912
0.00192531
0.000305572
0.00189393
3.13809e-05
0.00188854
5.39559e-06
0.00189309
-4.55256e-06
0.00189363
-5.39939e-07
0.00189358
5.05528e-08
0.00189242
1.16057e-06
0.00189131
1.10954e-06
0.00189021
1.09737e-06
0.0018893
9.13074e-07
0.00188851
7.83361e-07
0.00188786
6.50392e-07
0.00188732
5.47602e-07
0.00188686
4.58659e-07
0.00188647
3.87427e-07
0.00188614
3.27877e-07
0.00188587
2.78177e-07
0.00188563
2.3686e-07
0.00188543
2.01729e-07
0.00188526
1.71207e-07
0.00188511
1.45623e-07
0.00188499
1.23092e-07
0.00188488
1.04847e-07
0.00188479
8.91824e-08
0.00188472
7.50035e-08
0.00188465
6.2923e-08
0.0018846
5.2365e-08
0.00188456
4.34386e-08
0.00188452
3.64188e-08
0.00188449
3.01342e-08
0.00188446
2.54034e-08
0.00188444
2.07461e-08
0.00188443
1.73115e-08
0.00188441
1.39068e-08
0.0018844
1.11967e-08
0.00188439
9.05933e-09
0.00188439
7.39281e-09
0.00188438
6.26597e-09
0.00188437
5.31291e-09
0.00188437
3.83031e-09
0.00188437
3.05861e-09
0.00188436
1.99516e-09
0.00188436
1.92012e-09
0.00188436
1.5953e-09
0.00188436
1.36924e-09
0.00188436
7.82327e-10
0.00188436
3.2762e-10
0.00188436
-8.06275e-11
0.00188436
1.15532e-10
0.00188436
1.73534e-10
0.00188436
5.41614e-10
0.00188436
1.87584e-10
0.00188436
6.95719e-11
0.00188436
-3.05803e-10
0.00188436
-2.56864e-11
0.00188436
1.3719e-10
0.00188436
3.89546e-10
0.00188436
2.02091e-11
0.00188436
-1.09755e-10
0.00188436
-3.50527e-10
0.00188436
3.65677e-11
0.00188436
1.05484e-10
0.00188436
2.64755e-10
0.00188436
-8.88046e-11
0.00188436
-1.05949e-10
0.00188436
-2.28107e-10
0.00188436
6.10597e-11
0.00188436
-5.60112e-12
0.00188436
9.88384e-11
0.00188436
-4.40416e-11
0.00188436
1.23454e-10
0.00188436
1.06171e-10
0.00188436
2.79313e-10
0.00188436
1.21029e-10
0.00188436
2.17738e-10
0.00188435
8.69432e-11
0.00188435
2.69663e-10
0.00188435
2.93247e-10
0.00188435
5.22683e-10
0.00188435
5.64704e-10
0.00188435
7.95059e-10
0.00188435
8.83519e-10
0.00188435
1.29634e-09
0.00188435
1.80849e-09
0.00188435
2.77182e-09
0.00188434
4.01374e-09
0.00188434
5.9011e-09
0.00188433
8.35856e-09
0.00188432
1.18989e-08
0.0018843
1.64409e-08
0.00188428
2.12041e-08
0.00188425
2.48331e-08
0.00188423
2.24204e-08
0.00188422
1.42061e-08
0.00188418
3.36072e-08
0.00188397
2.09676e-07
0.001883
9.69431e-07
0.00188092
2.07805e-06
-2.26971e-06
0.00411143
0.00365768
0.00377927
0.000637736
0.00370308
0.000107571
0.00369324
1.52328e-05
0.00369862
-9.92947e-06
0.00370016
-2.08221e-06
0.00370002
1.83905e-07
0.00369826
2.9288e-06
0.00369637
2.99892e-06
0.00369452
2.94834e-06
0.00369294
2.48974e-06
0.00369159
2.13279e-06
0.00369046
1.778e-06
0.00368951
1.49784e-06
0.00368871
1.25858e-06
0.00368804
1.06441e-06
0.00368746
9.01774e-07
0.00368698
7.6632e-07
0.00368656
6.52859e-07
0.0036862
5.56853e-07
0.0036859
4.74429e-07
0.00368564
4.05428e-07
0.00368542
3.44722e-07
0.00368523
2.93715e-07
0.00368507
2.49459e-07
0.00368493
2.10309e-07
0.00368482
1.77077e-07
0.00368472
1.48393e-07
0.00368464
1.23912e-07
0.00368457
1.04001e-07
0.00368452
8.60292e-08
0.00368447
7.21894e-08
0.00368443
5.88413e-08
0.0036844
4.88385e-08
0.00368437
3.96937e-08
0.00368435
3.23882e-08
0.00368434
2.6756e-08
0.00368432
2.1848e-08
0.00368431
1.78916e-08
0.0036843
1.49117e-08
0.00368429
1.11887e-08
0.00368429
9.52594e-09
0.00368428
6.85432e-09
0.00368428
5.98897e-09
0.00368427
4.42476e-09
0.00368427
3.44105e-09
0.00368427
2.24448e-09
0.00368427
1.54672e-09
0.00368427
8.27762e-10
0.00368427
1.04539e-09
0.00368427
4.88851e-10
0.00368427
9.06974e-10
0.00368427
1.23085e-10
0.00368426
3.63952e-10
0.00368426
-4.31583e-11
0.00368426
4.90885e-10
0.00368426
4.1136e-10
0.00368426
7.33859e-10
0.00368426
1.48193e-10
0.00368426
3.25595e-10
0.00368426
-1.22819e-10
0.00368426
4.16713e-10
0.00368426
7.22043e-11
0.00368426
2.92702e-10
0.00368426
-3.47741e-10
0.00368426
-2.14282e-10
0.00368426
-5.71448e-10
0.00368426
-1.64971e-10
0.00368426
-4.41306e-10
0.00368426
-1.3671e-10
0.00368426
-3.7359e-10
0.00368426
1.02311e-10
0.00368426
3.00611e-11
0.00368426
5.34625e-10
0.00368426
3.62386e-10
0.00368426
7.76384e-10
0.00368426
5.95322e-10
0.00368426
9.91288e-10
0.00368426
9.29932e-10
0.00368426
1.33044e-09
0.00368426
1.35432e-09
0.00368426
1.92693e-09
0.00368426
2.3243e-09
0.00368425
3.55282e-09
0.00368425
5.02611e-09
0.00368425
7.67752e-09
0.00368424
1.11155e-08
0.00368423
1.64576e-08
0.00368421
2.3563e-08
0.00368419
3.34927e-08
0.00368416
4.62073e-08
0.00368412
5.98176e-08
0.00368408
7.15684e-08
0.00368403
7.01531e-08
0.00368398
6.8747e-08
0.00368385
1.59304e-07
0.00368327
7.87409e-07
0.00368129
2.95554e-06
0.00367648
6.88072e-06
3.66521e-06
0.00488986
0.00376782
0.00465349
0.000874113
0.00456531
0.000195748
0.00455517
2.53717e-05
0.00455891
-1.3672e-05
0.00456095
-4.11659e-06
0.00456073
4.00569e-07
0.004559
4.66121e-06
0.00455699
5.01172e-06
0.00455504
4.90185e-06
0.00455334
4.18512e-06
0.00455189
3.5804e-06
0.00455068
2.99365e-06
0.00454965
2.52244e-06
0.00454879
2.12329e-06
0.00454805
1.79705e-06
0.00454743
1.52364e-06
0.0045469
1.29643e-06
0.00454645
1.10593e-06
0.00454606
9.45086e-07
0.00454573
8.07353e-07
0.00454544
6.91524e-07
0.0045452
5.89718e-07
0.00454499
5.03066e-07
0.00454481
4.27799e-07
0.00454466
3.61855e-07
0.00454453
3.05712e-07
0.00454442
2.57245e-07
0.00454433
2.15508e-07
0.00454425
1.8107e-07
0.00454419
1.50039e-07
0.00454413
1.25848e-07
0.00454409
1.03015e-07
0.00454405
8.56371e-08
0.00454402
7.02395e-08
0.00454399
5.76528e-08
0.00454397
4.78423e-08
0.00454396
3.91535e-08
0.00454394
3.18391e-08
0.00454393
2.65509e-08
0.00454392
2.03809e-08
0.00454391
1.74322e-08
0.00454391
1.286e-08
0.0045439
1.07686e-08
0.0045439
7.81301e-09
0.00454389
5.99239e-09
0.00454389
4.20725e-09
0.00454389
3.15496e-09
0.00454389
1.91116e-09
0.00454389
1.93239e-09
0.00454389
7.17194e-10
0.00454389
1.23994e-09
0.00454389
2.13712e-10
0.00454389
7.72944e-10
0.00454389
2.69428e-10
0.00454389
8.97619e-10
0.00454389
5.79331e-10
0.00454389
1.02854e-09
0.00454389
3.33512e-10
0.00454389
7.66878e-10
0.00454389
4.58828e-11
0.00454389
6.22185e-10
0.00454389
-9.01507e-11
0.00454389
2.21206e-10
0.00454389
-6.17957e-10
0.00454389
-3.72875e-10
0.00454389
-9.66062e-10
0.00454389
-5.01012e-10
0.00454389
-9.5282e-10
0.00454389
-4.40427e-10
0.00454389
-7.20939e-10
0.00454389
8.4562e-11
0.00454389
1.24747e-11
0.00454389
8.52915e-10
0.00454389
7.25136e-10
0.00454389
1.41498e-09
0.00454388
1.1786e-09
0.00454388
1.70772e-09
0.00454388
1.55664e-09
0.00454388
2.14448e-09
0.00454388
2.24753e-09
0.00454388
3.22991e-09
0.00454388
4.02777e-09
0.00454388
6.11622e-09
0.00454387
8.63639e-09
0.00454387
1.31142e-08
0.00454386
1.89948e-08
0.00454385
2.81111e-08
0.00454383
4.03682e-08
0.00454381
5.73082e-08
0.00454377
7.91287e-08
0.00454373
1.0308e-07
0.00454368
1.26234e-07
0.00454361
1.32423e-07
0.00454352
1.61169e-07
0.00454331
3.66569e-07
0.00454247
1.63235e-06
0.00453992
5.50368e-06
0.00453279
1.4012e-05
1.68868e-05
0.0052074
0.00356042
0.0050527
0.00102881
0.00497527
0.00027318
0.00496584
3.48037e-05
0.00496813
-1.59649e-05
0.00497015
-6.13728e-06
0.00496994
6.07367e-07
0.00496844
6.16497e-06
0.00496661
6.84556e-06
0.00496483
6.68292e-06
0.00496327
5.74447e-06
0.00496193
4.91233e-06
0.00496081
4.11555e-06
0.00495987
3.46923e-06
0.00495907
2.92338e-06
0.00495839
2.47583e-06
0.00495781
2.10062e-06
0.00495732
1.78954e-06
0.0049569
1.52882e-06
0.00495653
1.30887e-06
0.00495622
1.12055e-06
0.00495595
9.61668e-07
0.00495572
8.21962e-07
0.00495552
7.0241e-07
0.00495534
5.98593e-07
0.0049552
5.07941e-07
0.00495507
4.30404e-07
0.00495497
3.63305e-07
0.00495488
3.05086e-07
0.0049548
2.56708e-07
0.00495474
2.13215e-07
0.00495469
1.79031e-07
0.00495464
1.4727e-07
0.0049546
1.22748e-07
0.00495457
1.01293e-07
0.00495455
8.34495e-08
0.00495453
6.93277e-08
0.00495451
5.69462e-08
0.00495449
4.63167e-08
0.00495448
3.87331e-08
0.00495447
3.0087e-08
0.00495446
2.55806e-08
0.00495446
1.91053e-08
0.00495445
1.57221e-08
0.00495445
1.1508e-08
0.00495444
8.86029e-09
0.00495444
6.40017e-09
0.00495444
4.8701e-09
0.00495444
2.96061e-09
0.00495444
2.74665e-09
0.00495444
9.95404e-10
0.00495444
1.64667e-09
0.00495444
4.46222e-10
0.00495444
1.17564e-09
0.00495444
5.02444e-10
0.00495444
1.18963e-09
0.00495444
7.32554e-10
0.00495444
1.38078e-09
0.00495443
5.92917e-10
0.00495443
1.17623e-09
0.00495443
1.60685e-10
0.00495443
7.52366e-10
0.00495443
-2.18378e-10
0.00495443
1.8068e-10
0.00495443
-8.45414e-10
0.00495443
-5.63942e-10
0.00495443
-1.3876e-09
0.00495443
-8.65947e-10
0.00495444
-1.45934e-09
0.00495444
-7.50983e-10
0.00495444
-1.05318e-09
0.00495444
6.15519e-11
0.00495444
3.1764e-11
0.00495444
1.16499e-09
0.00495443
1.09001e-09
0.00495443
2.0015e-09
0.00495443
1.71213e-09
0.00495443
2.34961e-09
0.00495443
2.15067e-09
0.00495443
2.96044e-09
0.00495443
3.19799e-09
0.00495443
4.58737e-09
0.00495443
5.75583e-09
0.00495443
8.60685e-09
0.00495442
1.20923e-08
0.00495442
1.82687e-08
0.00495441
2.64817e-08
0.0049544
3.91475e-08
0.00495438
5.62798e-08
0.00495436
7.9869e-08
0.00495433
1.10509e-07
0.00495429
1.45067e-07
0.00495423
1.82025e-07
0.00495416
2.02888e-07
0.00495404
2.82053e-07
0.00495377
6.33386e-07
0.00495279
2.61373e-06
0.00495
8.29298e-06
0.00494144
2.2569e-05
3.30074e-05
0.00531999
0.00324043
0.00522953
0.00111928
0.00516883
0.000333879
0.00516076
4.2874e-05
0.00516198
-1.71856e-05
0.00516379
-7.94601e-06
0.00516364
7.60127e-07
0.00516243
7.37052e-06
0.0051609
8.3763e-06
0.00515941
8.17292e-06
0.00515809
7.05918e-06
0.00515697
6.03749e-06
0.00515602
5.06576e-06
0.00515522
4.27178e-06
0.00515454
3.60195e-06
0.00515396
3.05166e-06
0.00515347
2.59218e-06
0.00515305
2.21095e-06
0.00515269
1.89151e-06
0.00515237
1.62214e-06
0.0051521
1.39148e-06
0.00515187
1.19651e-06
0.00515167
1.02487e-06
0.00515149
8.77506e-07
0.00515134
7.49455e-07
0.00515121
6.37808e-07
0.0051511
5.41742e-07
0.005151
4.58539e-07
0.00515092
3.85935e-07
0.00515085
3.25228e-07
0.0051508
2.7084e-07
0.00515075
2.27717e-07
0.00515071
1.88159e-07
0.00515067
1.57237e-07
0.00515064
1.30275e-07
0.00515062
1.07704e-07
0.0051506
8.95025e-08
0.00515058
7.38754e-08
0.00515057
6.02169e-08
0.00515055
5.04968e-08
0.00515055
3.9554e-08
0.00515054
3.33994e-08
0.00515053
2.51913e-08
0.00515053
2.05865e-08
0.00515052
1.52285e-08
0.00515052
1.18091e-08
0.00515052
8.57748e-09
0.00515051
6.56268e-09
0.00515051
3.95329e-09
0.00515051
3.50407e-09
0.00515051
1.29465e-09
0.00515051
2.01441e-09
0.00515051
6.69239e-10
0.00515051
1.53159e-09
0.00515051
7.16713e-10
0.00515051
1.5066e-09
0.00515051
9.35779e-10
0.00515051
1.78437e-09
0.00515051
8.80798e-10
0.00515051
1.55673e-09
0.00515051
2.61525e-10
0.00515051
8.46138e-10
0.00515051
-3.44112e-10
0.00515051
1.16739e-10
0.00515051
-1.09214e-09
0.00515051
-7.9195e-10
0.00515051
-1.83757e-09
0.00515051
-1.249e-09
0.00515051
-1.96725e-09
0.00515051
-1.05611e-09
0.00515051
-1.35917e-09
0.00515051
5.73981e-11
0.00515051
9.23688e-11
0.00515051
1.47696e-09
0.00515051
1.43894e-09
0.00515051
2.5234e-09
0.00515051
2.17171e-09
0.00515051
2.89709e-09
0.00515051
2.65031e-09
0.00515051
3.68233e-09
0.00515051
4.05185e-09
0.0051505
5.83103e-09
0.0051505
7.32932e-09
0.0051505
1.08429e-08
0.0051505
1.51571e-08
0.00515049
2.27899e-08
0.00515049
3.30361e-08
0.00515048
4.87887e-08
0.00515046
7.01796e-08
0.00515044
9.96294e-08
0.00515042
1.3824e-07
0.00515038
1.83017e-07
0.00515032
2.35248e-07
0.00515025
2.76562e-07
0.00515011
4.19941e-07
0.00514981
9.32633e-07
0.0051488
3.62661e-06
0.00514604
1.10514e-05
0.00513723
3.13788e-05
4.8959e-05
0.00534347
0.00289696
0.00530241
0.00116034
0.00525901
0.000377278
0.00525256
4.93271e-05
0.00525304
-1.76722e-05
0.00525458
-9.47861e-06
0.00525449
8.45818e-07
0.0052536
8.25785e-06
0.00525242
9.55931e-06
0.00525126
9.32891e-06
0.00525023
8.0887e-06
0.00524935
6.9209e-06
0.0052486
5.81426e-06
0.00524797
4.90468e-06
0.00524744
4.13813e-06
0.00524698
3.50781e-06
0.00524659
2.98265e-06
0.00524625
2.54709e-06
0.00524596
2.18205e-06
0.00524571
1.87428e-06
0.00524549
1.61077e-06
0.0052453
1.38723e-06
0.00524513
1.19077e-06
0.00524499
1.02182e-06
0.00524487
8.74467e-07
0.00524476
7.46111e-07
0.00524466
6.35028e-07
0.00524458
5.38818e-07
0.00524452
4.54606e-07
0.00524446
3.83663e-07
0.00524441
3.20368e-07
0.00524436
2.69732e-07
0.00524433
2.23708e-07
0.0052443
1.87398e-07
0.00524427
1.55657e-07
0.00524425
1.29097e-07
0.00524423
1.07283e-07
0.00524422
8.89592e-08
0.00524421
7.26708e-08
0.00524419
6.10475e-08
0.00524419
4.81113e-08
0.00524418
4.04227e-08
0.00524417
3.07748e-08
0.00524417
2.51329e-08
0.00524417
1.87622e-08
0.00524416
1.46348e-08
0.00524416
1.05878e-08
0.00524416
8.1361e-09
0.00524416
4.89345e-09
0.00524416
4.24449e-09
0.00524416
1.62433e-09
0.00524416
2.30816e-09
0.00524416
8.04868e-10
0.00524416
1.80677e-09
0.00524416
9.36009e-10
0.00524415
1.89142e-09
0.00524415
1.2107e-09
0.00524415
2.22221e-09
0.00524415
1.19646e-09
0.00524415
1.96443e-09
0.00524415
4.40825e-10
0.00524415
9.84774e-10
0.00524415
-4.47965e-10
0.00524415
1.00016e-11
0.00524415
-1.38296e-09
0.00524415
-1.05766e-09
0.00524415
-2.30461e-09
0.00524415
-1.64809e-09
0.00524415
-2.48602e-09
0.00524415
-1.37678e-09
0.00524415
-1.67104e-09
0.00524416
2.61409e-11
0.00524415
1.37871e-10
0.00524415
1.7438e-09
0.00524415
1.74682e-09
0.00524415
2.98942e-09
0.00524415
2.59349e-09
0.00524415
3.40445e-09
0.00524415
3.0972e-09
0.00524415
4.30852e-09
0.00524415
4.75192e-09
0.00524415
6.85503e-09
0.00524415
8.61952e-09
0.00524415
1.26839e-08
0.00524414
1.76767e-08
0.00524414
2.64924e-08
0.00524413
3.84013e-08
0.00524413
5.66857e-08
0.00524412
8.15835e-08
0.0052441
1.15919e-07
0.00524408
1.61394e-07
0.00524404
2.15577e-07
0.005244
2.8354e-07
0.00524392
3.49084e-07
0.00524378
5.63952e-07
0.00524348
1.23332e-06
0.0052425
4.60282e-06
0.00523999
1.35598e-05
0.00523186
3.95116e-05
6.31036e-05
0.00533084
0.00256611
0.00532724
0.00116394
0.00529988
0.000404639
0.00529512
5.40901e-05
0.00529511
-1.76656e-05
0.00529635
-1.07172e-05
0.00529633
8.654e-07
0.00529576
8.83287e-06
0.00529493
1.03887e-05
0.00529411
1.01451e-05
0.00529338
8.82483e-06
0.00529274
7.55513e-06
0.0052922
6.35428e-06
0.00529175
5.3624e-06
0.00529136
4.52723e-06
0.00529102
3.8401e-06
0.00529074
3.26827e-06
0.00529049
2.79422e-06
0.00529028
2.39686e-06
0.00529009
2.06185e-06
0.00528993
1.77507e-06
0.00528978
1.53123e-06
0.00528966
1.31702e-06
0.00528955
1.1325e-06
0.00528945
9.70934e-07
0.00528936
8.30307e-07
0.00528929
7.07928e-07
0.00528923
6.02083e-07
0.00528917
5.08859e-07
0.00528913
4.30326e-07
0.00528909
3.60301e-07
0.00528905
3.03751e-07
0.00528902
2.5269e-07
0.005289
2.12138e-07
0.00528898
1.76501e-07
0.00528896
1.46811e-07
0.00528895
1.22005e-07
0.00528893
1.01593e-07
0.00528892
8.31473e-08
0.00528891
6.99454e-08
0.00528891
5.53992e-08
0.0052889
4.63899e-08
0.00528889
3.56173e-08
0.00528889
2.9121e-08
0.00528889
2.18976e-08
0.00528888
1.71588e-08
0.00528888
1.23253e-08
0.00528888
9.50947e-09
0.00528888
5.70648e-09
0.00528888
4.89153e-09
0.00528888
1.91402e-09
0.00528888
2.49269e-09
0.00528888
8.41256e-10
0.00528888
1.98724e-09
0.00528888
1.13761e-09
0.00528888
2.298e-09
0.00528888
1.5125e-09
0.00528888
2.64784e-09
0.00528888
1.49802e-09
0.00528888
2.36251e-09
0.00528888
6.68378e-10
0.00528888
1.14912e-09
0.00528888
-5.36339e-10
0.00528888
-1.35944e-10
0.00528888
-1.70202e-09
0.00528888
-1.33649e-09
0.00528888
-2.75051e-09
0.00528888
-2.02288e-09
0.00528888
-2.97398e-09
0.00528888
-1.68611e-09
0.00528888
-1.97529e-09
0.00528888
-3.47497e-11
0.00528888
1.58751e-10
0.00528888
1.95485e-09
0.00528888
2.00063e-09
0.00528888
3.38321e-09
0.00528888
2.96035e-09
0.00528888
3.85252e-09
0.00528888
3.47411e-09
0.00528888
4.81415e-09
0.00528888
5.2704e-09
0.00528887
7.62434e-09
0.00528887
9.5925e-09
0.00528887
1.4091e-08
0.00528887
1.95997e-08
0.00528887
2.93104e-08
0.00528886
4.24809e-08
0.00528886
6.26909e-08
0.00528885
9.02884e-08
0.00528884
1.28408e-07
0.00528882
1.79493e-07
0.00528879
2.41927e-07
0.00528875
3.2513e-07
0.00528868
4.15981e-07
0.00528854
7.0267e-07
0.00528826
1.51847e-06
0.00528739
5.47385e-06
0.00528527
1.56745e-05
0.00527841
4.6372e-05
7.46397e-05
0.00530572
0.00226039
0.00533051
0.00113915
0.00531733
0.000417813
0.00531424
5.71798e-05
0.0053139
-1.73195e-05
0.00531483
-1.16508e-05
0.00531487
8.22042e-07
0.00531459
9.11812e-06
0.0053141
1.08778e-05
0.00531361
1.06334e-05
0.00531316
9.27554e-06
0.00531277
7.94647e-06
0.00531244
6.69059e-06
0.00531215
5.64887e-06
0.0053119
4.77228e-06
0.00531169
4.05071e-06
0.00531151
3.45069e-06
0.00531135
2.95343e-06
0.00531121
2.53649e-06
0.00531109
2.18501e-06
0.00531098
1.88421e-06
0.00531088
1.62805e-06
0.0053108
1.40289e-06
0.00531072
1.20861e-06
0.00531066
1.03781e-06
0.0053106
8.89276e-07
0.00531055
7.59362e-07
0.0053105
6.47204e-07
0.00531046
5.48026e-07
0.00531043
4.64311e-07
0.0053104
3.89757e-07
0.00531037
3.28972e-07
0.00531035
2.74364e-07
0.00531033
2.30617e-07
0.00531032
1.92209e-07
0.0053103
1.6034e-07
0.00531029
1.33244e-07
0.00531028
1.11366e-07
0.00531027
9.12721e-08
0.00531027
7.68723e-08
0.00531026
6.11686e-08
0.00531025
5.11183e-08
0.00531025
3.95439e-08
0.00531025
3.23688e-08
0.00531024
2.44663e-08
0.00531024
1.92604e-08
0.00531024
1.37193e-08
0.00531024
1.06213e-08
0.00531024
6.32433e-09
0.00531024
5.36922e-09
0.00531024
2.10806e-09
0.00531024
2.5613e-09
0.00531024
7.96567e-10
0.00531024
2.07863e-09
0.00531024
1.29131e-09
0.00531024
2.67027e-09
0.00531024
1.79247e-09
0.00531024
3.0273e-09
0.00531024
1.76137e-09
0.00531024
2.72066e-09
0.00531024
9.1221e-10
0.00531024
1.32232e-09
0.00531024
-6.03439e-10
0.00531024
-2.96542e-10
0.00531024
-2.02198e-09
0.00531024
-1.60406e-09
0.00531024
-3.14857e-09
0.00531024
-2.34334e-09
0.00531024
-3.39645e-09
0.00531024
-1.95753e-09
0.00531024
-2.25459e-09
0.00531024
-1.20494e-10
0.00531024
1.51992e-10
0.00531024
2.10471e-09
0.00531024
2.19059e-09
0.00531024
3.69129e-09
0.00531024
3.25573e-09
0.00531024
4.22717e-09
0.00531024
3.77472e-09
0.00531024
5.1994e-09
0.00531024
5.61342e-09
0.00531023
8.13787e-09
0.00531023
1.024e-08
0.00531023
1.50473e-08
0.00531023
2.09069e-08
0.00531023
3.12216e-08
0.00531023
4.52504e-08
0.00531022
6.67422e-08
0.00531022
9.62286e-08
0.00531021
1.3699e-07
0.0053102
1.9217e-07
0.00531018
2.61471e-07
0.00531014
3.58635e-07
0.00531009
4.74042e-07
0.00530996
8.27706e-07
0.00530971
1.76855e-06
0.00530899
6.19015e-06
0.00530736
1.73067e-05
0.00530211
5.16259e-05
8.32117e-05
0.00527818
0.00198222
0.00532466
0.00109267
0.00532376
0.000418706
0.00532228
5.86617e-05
0.00532169
-1.67227e-05
0.0053223
-1.22691e-05
0.0053224
7.26142e-07
0.00532238
9.14218e-06
0.0053222
1.10492e-05
0.00532202
1.08144e-05
0.00532184
9.45686e-06
0.00532168
8.10794e-06
0.00532154
6.8336e-06
0.00532142
5.7726e-06
0.00532131
4.88012e-06
0.00532121
4.14515e-06
0.00532113
3.5343e-06
0.00532106
3.02813e-06
0.00532099
2.60357e-06
0.00532093
2.24568e-06
0.00532087
1.93954e-06
0.00532082
1.67848e-06
0.00532078
1.44877e-06
0.00532074
1.25031e-06
0.0053207
1.07507e-06
0.00532066
9.22846e-07
0.00532063
7.89063e-07
0.00532061
6.73806e-07
0.00532058
5.71639e-07
0.00532056
4.85131e-07
0.00532055
4.08214e-07
0.00532053
3.44911e-07
0.00532052
2.88228e-07
0.0053205
2.42593e-07
0.00532049
2.02437e-07
0.00532048
1.694e-07
0.00532048
1.40733e-07
0.00532047
1.17985e-07
0.00532046
9.67715e-08
0.00532046
8.16265e-08
0.00532045
6.52577e-08
0.00532045
5.44802e-08
0.00532045
4.24139e-08
0.00532045
3.47424e-08
0.00532044
2.63415e-08
0.00532044
2.08479e-08
0.00532044
1.47224e-08
0.00532044
1.14225e-08
0.00532044
6.69549e-09
0.00532044
5.61936e-09
0.00532044
2.1706e-09
0.00532044
2.52725e-09
0.00532044
6.99325e-10
0.00532044
2.09946e-09
0.00532044
1.37515e-09
0.00532044
2.96574e-09
0.00532044
2.01869e-09
0.00532044
3.34395e-09
0.00532044
1.97591e-09
0.00532044
3.01332e-09
0.00532044
1.13487e-09
0.00532044
1.48309e-09
0.00532044
-6.49361e-10
0.00532044
-4.48126e-10
0.00532044
-2.32047e-09
0.00532044
-1.84461e-09
0.00532044
-3.48659e-09
0.00532044
-2.59307e-09
0.00532044
-3.72895e-09
0.00532044
-2.16493e-09
0.00532044
-2.48426e-09
0.00532044
-2.12146e-10
0.00532044
1.28215e-10
0.00532044
2.20123e-09
0.00532044
2.31701e-09
0.00532044
3.90999e-09
0.00532044
3.46679e-09
0.00532044
4.51394e-09
0.00532044
3.9896e-09
0.00532044
5.46586e-09
0.00532044
5.79394e-09
0.00532044
8.40911e-09
0.00532044
1.05695e-08
0.00532044
1.55526e-08
0.00532044
2.15948e-08
0.00532043
3.22236e-08
0.00532043
4.67246e-08
0.00532043
6.88597e-08
0.00532043
9.92781e-08
0.00532042
1.41693e-07
0.00532042
1.99564e-07
0.0053204
2.73995e-07
0.00532038
3.82832e-07
0.00532033
5.20248e-07
0.00532023
9.31087e-07
0.00532003
1.96795e-06
0.0053195
6.71823e-06
0.0053184
1.84066e-05
0.00531491
5.51168e-05
8.87184e-05
0.00525226
0.00172996
0.00531548
0.00102946
0.00532511
0.000409068
0.00532515
5.86231e-05
0.00532435
-1.59219e-05
0.00532465
-1.25628e-05
0.00532478
5.9374e-07
0.00532498
8.93555e-06
0.0053251
1.09302e-05
0.00532521
1.07128e-05
0.00532527
9.38883e-06
0.00532533
8.05595e-06
0.00532536
6.79656e-06
0.00532539
5.74444e-06
0.00532541
4.85956e-06
0.00532543
4.13061e-06
0.00532544
3.52488e-06
0.00532544
3.023e-06
0.00532544
2.60188e-06
0.00532544
2.24682e-06
0.00532544
1.9433e-06
0.00532543
1.68417e-06
0.00532543
1.45586e-06
0.00532542
1.25848e-06
0.00532541
1.08336e-06
0.0053254
9.31474e-07
0.00532539
7.9733e-07
0.00532538
6.81984e-07
0.00532538
5.79608e-07
0.00532537
4.9262e-07
0.00532536
4.15445e-07
0.00532535
3.51363e-07
0.00532535
2.94067e-07
0.00532534
2.47864e-07
0.00532534
2.06998e-07
0.00532533
1.73775e-07
0.00532533
1.44319e-07
0.00532533
1.2131e-07
0.00532532
9.95631e-08
0.00532532
8.40869e-08
0.00532532
6.7563e-08
0.00532532
5.63981e-08
0.00532531
4.40939e-08
0.00532531
3.61639e-08
0.00532531
2.74406e-08
0.00532531
2.18429e-08
0.00532531
1.52862e-08
0.00532531
1.18664e-08
0.00532531
6.79953e-09
0.00532531
5.62106e-09
0.00532531
2.089e-09
0.00532531
2.40868e-09
0.00532531
5.72321e-10
0.00532531
2.07081e-09
0.00532531
1.38346e-09
0.00532531
3.16619e-09
0.00532531
2.1788e-09
0.00532531
3.59583e-09
0.00532531
2.14294e-09
0.00532531
3.23027e-09
0.00532531
1.3085e-09
0.00532531
1.61175e-09
0.00532531
-6.79866e-10
0.00532531
-5.75433e-10
0.00532531
-2.58043e-09
0.00532531
-2.04871e-09
0.00532531
-3.76197e-09
0.00532531
-2.77041e-09
0.00532531
-3.96264e-09
0.00532531
-2.29507e-09
0.00532531
-2.6461e-09
0.00532531
-2.94472e-10
0.00532531
9.36002e-11
0.00532531
2.24892e-09
0.00532531
2.38172e-09
0.00532531
4.03826e-09
0.00532531
3.58442e-09
0.00532531
4.70048e-09
0.00532531
4.10785e-09
0.00532531
5.61181e-09
0.00532531
5.82358e-09
0.00532531
8.45223e-09
0.00532531
1.0593e-08
0.00532531
1.56175e-08
0.00532531
2.16787e-08
0.00532531
3.23417e-08
0.00532531
4.68674e-08
0.00532531
6.91402e-08
0.00532531
9.96924e-08
0.00532531
1.42623e-07
0.00532531
2.01709e-07
0.0053253
2.79327e-07
0.00532529
3.96799e-07
0.00532526
5.51971e-07
0.00532518
1.00631e-06
0.00532504
2.10561e-06
0.00532472
7.03716e-06
0.00532418
1.89521e-05
0.00532249
5.68049e-05
9.12105e-05
0.00522936
0.0015006
0.0053056
0.000953216
0.00532422
0.000390448
0.00532568
5.71616e-05
0.0053247
-1.494e-05
0.00532466
-1.25263e-05
0.00532481
4.42921e-07
0.00532522
8.52887e-06
0.0053256
1.05499e-05
0.00532596
1.03552e-05
0.00532625
9.0935e-06
0.0053265
7.80866e-06
0.0053267
6.5942e-06
0.00532687
5.57646e-06
0.00532701
4.7205e-06
0.00532712
4.01519e-06
0.00532722
3.42912e-06
0.0053273
2.94351e-06
0.00532737
2.5359e-06
0.00532742
2.19209e-06
0.00532747
1.89838e-06
0.0053275
1.64743e-06
0.00532753
1.42593e-06
0.00532756
1.23454e-06
0.00532758
1.06384e-06
0.00532759
9.16055e-07
0.0053276
7.84884e-07
0.00532761
6.72218e-07
0.00532762
5.72227e-07
0.00532763
4.86932e-07
0.00532763
4.11489e-07
0.00532763
3.48358e-07
0.00532764
2.91863e-07
0.00532764
2.46392e-07
0.00532764
2.05856e-07
0.00532764
1.73378e-07
0.00532764
1.4395e-07
0.00532764
1.21266e-07
0.00532764
9.95947e-08
0.00532764
8.4195e-08
0.00532764
6.79909e-08
0.00532764
5.68222e-08
0.00532764
4.4564e-08
0.00532764
3.66071e-08
0.00532764
2.77168e-08
0.00532764
2.21932e-08
0.00532764
1.53607e-08
0.00532764
1.19119e-08
0.00532764
6.6291e-09
0.00532764
5.37595e-09
0.00532764
1.86444e-09
0.00532764
2.21768e-09
0.00532764
4.22917e-10
0.00532764
2.00489e-09
0.00532764
1.3213e-09
0.00532764
3.25948e-09
0.00532764
2.26855e-09
0.00532764
3.77723e-09
0.00532764
2.2699e-09
0.00532764
3.37235e-09
0.00532764
1.42354e-09
0.00532764
1.69906e-09
0.00532764
-7.00218e-10
0.00532764
-6.70985e-10
0.00532764
-2.79249e-09
0.00532764
-2.21485e-09
0.00532764
-3.97927e-09
0.00532764
-2.89143e-09
0.00532764
-4.10867e-09
0.00532764
-2.35675e-09
0.00532764
-2.73986e-09
0.00532764
-3.65915e-10
0.00532764
4.48966e-11
0.00532764
2.24287e-09
0.00532764
2.38217e-09
0.00532764
4.07734e-09
0.00532764
3.60805e-09
0.00532764
4.7784e-09
0.00532764
4.12294e-09
0.00532764
5.6296e-09
0.00532764
5.70964e-09
0.00532764
8.27828e-09
0.00532764
1.03269e-08
0.00532764
1.52524e-08
0.00532764
2.11745e-08
0.00532764
3.16388e-08
0.00532764
4.58334e-08
0.00532764
6.76721e-08
0.00532764
9.75996e-08
0.00532765
1.39946e-07
0.00532765
1.98722e-07
0.00532765
2.77411e-07
0.00532765
3.99899e-07
0.00532763
5.67248e-07
0.00532759
1.04871e-06
0.00532752
2.17435e-06
0.00532742
7.13647e-06
0.00532743
1.89424e-05
0.00532751
5.67284e-05
9.08315e-05
0.00520976
0.00129083
0.00529619
0.000866791
0.00532244
0.000364201
0.00532522
5.43814e-05
0.00532406
-1.37888e-05
0.0053237
-1.21595e-05
0.00532385
2.91097e-07
0.00532443
7.95163e-06
0.00532504
9.93785e-06
0.00532562
9.76881e-06
0.00532612
8.59378e-06
0.00532655
7.38514e-06
0.0053269
6.24208e-06
0.00532719
5.28147e-06
0.00532744
4.47348e-06
0.00532765
3.80764e-06
0.00532782
3.25426e-06
0.00532797
2.7957e-06
0.0053281
2.41068e-06
0.0053282
2.08565e-06
0.00532829
1.80821e-06
0.00532837
1.57107e-06
0.00532843
1.36128e-06
0.00532849
1.18036e-06
0.00532853
1.01808e-06
0.00532857
8.77851e-07
0.0053286
7.52781e-07
0.00532863
6.45336e-07
0.00532865
5.501e-07
0.00532867
4.68525e-07
0.00532869
3.96637e-07
0.0053287
3.3614e-07
0.00532871
2.81799e-07
0.00532872
2.38303e-07
0.00532872
1.99115e-07
0.00532873
1.68239e-07
0.00532873
1.39672e-07
0.00532874
1.17879e-07
0.00532874
9.68841e-08
0.00532874
8.19698e-08
0.00532874
6.65091e-08
0.00532874
5.57301e-08
0.00532874
4.37988e-08
0.00532874
3.60489e-08
0.00532874
2.71594e-08
0.00532874
2.1847e-08
0.00532875
1.49295e-08
0.00532875
1.15503e-08
0.00532875
6.17137e-09
0.00532875
4.90043e-09
0.00532875
1.49789e-09
0.00532875
1.94869e-09
0.00532875
2.43681e-10
0.00532875
1.89487e-09
0.00532875
1.19895e-09
0.00532875
3.23761e-09
0.00532875
2.28231e-09
0.00532875
3.87531e-09
0.00532875
2.35556e-09
0.00532875
3.44215e-09
0.00532875
1.47741e-09
0.00532875
1.73843e-09
0.00532875
-7.15197e-10
0.00532875
-7.35147e-10
0.00532875
-2.94663e-09
0.00532875
-2.34082e-09
0.00532875
-4.13931e-09
0.00532875
-2.97168e-09
0.00532875
-4.18829e-09
0.00532875
-2.37331e-09
0.00532875
-2.78197e-09
0.00532875
-4.39258e-10
0.00532875
-3.12471e-11
0.00532875
2.17085e-09
0.00532875
2.31329e-09
0.00532875
4.02729e-09
0.00532875
3.54508e-09
0.00532875
4.74429e-09
0.00532875
4.03276e-09
0.00532875
5.50993e-09
0.00532875
5.45411e-09
0.00532875
7.89143e-09
0.00532875
9.79125e-09
0.00532875
1.4503e-08
0.00532875
2.01409e-08
0.00532875
3.01714e-08
0.00532876
4.37061e-08
0.00532876
6.45848e-08
0.00532876
9.31521e-08
0.00532877
1.33871e-07
0.00532878
1.90817e-07
0.00532879
2.68351e-07
0.0053288
3.91821e-07
0.0053288
5.64861e-07
0.00532879
1.05539e-06
0.00532879
2.17049e-06
0.00532892
7.01468e-06
0.00532947
1.83927e-05
0.00533122
5.4978e-05
8.77831e-05
0.00519331
0.00109752
0.00528772
0.000772383
0.0053204
0.000331519
0.00532439
5.03941e-05
0.00532308
-1.24769e-05
0.00532239
-1.14703e-05
0.00532253
1.53221e-07
0.00532325
7.23145e-06
0.00532406
9.12316e-06
0.00532485
8.98074e-06
0.00532553
7.91292e-06
0.00532611
6.80485e-06
0.00532659
5.75623e-06
0.005327
4.87276e-06
0.00532735
4.12952e-06
0.00532764
3.51712e-06
0.00532788
3.00802e-06
0.00532809
2.58604e-06
0.00532827
2.23167e-06
0.00532843
1.93216e-06
0.00532856
1.67669e-06
0.00532867
1.45838e-06
0.00532877
1.2647e-06
0.00532885
1.09819e-06
0.00532892
9.47993e-07
0.00532898
8.18436e-07
0.00532903
7.0236e-07
0.00532907
6.02473e-07
0.00532911
5.14115e-07
0.00532914
4.38129e-07
0.00532916
3.71417e-07
0.00532918
3.15147e-07
0.0053292
2.64257e-07
0.00532922
2.23882e-07
0.00532923
1.87032e-07
0.00532924
1.58508e-07
0.00532924
1.31623e-07
0.00532925
1.11267e-07
0.00532926
9.15244e-08
0.00532926
7.75038e-08
0.00532926
6.31468e-08
0.00532927
5.31414e-08
0.00532927
4.18128e-08
0.00532927
3.44962e-08
0.00532927
2.57921e-08
0.00532927
2.07811e-08
0.00532927
1.39763e-08
0.00532928
1.07658e-08
0.00532928
5.45599e-09
0.00532928
4.22979e-09
0.00532928
9.91482e-10
0.00532928
1.58902e-09
0.00532928
2.06184e-11
0.00532928
1.72427e-09
0.00532928
1.01945e-09
0.00532928
3.10839e-09
0.00532928
2.20672e-09
0.00532928
3.89058e-09
0.00532928
2.38763e-09
0.00532928
3.44989e-09
0.00532928
1.47046e-09
0.00532928
1.72181e-09
0.00532928
-7.32859e-10
0.00532928
-7.76796e-10
0.00532928
-3.03789e-09
0.00532928
-2.41932e-09
0.00532928
-4.23751e-09
0.00532928
-3.01933e-09
0.00532928
-4.22051e-09
0.00532928
-2.37097e-09
0.00532928
-2.79643e-09
0.00532928
-5.30987e-10
0.00532928
-1.4823e-10
0.00532928
2.02116e-09
0.00532928
2.16977e-09
0.00532928