/*--------------------------------*- C++ -*----------------------------------*\
| =========                 |                                                 |
| \\      /  F ield         | OpenFOAM: The Open Source CFD Toolbox           |
|  \\    /   O peration     | Version:  v1906                                 |
|   \\  /    A nd           | Web:      www.OpenFOAM.com                      |
|    \\/     M anipulation  |                                                 |
\*---------------------------------------------------------------------------*/
FoamFile
{
    version     2.0;
    format      ascii;
    class       surfaceScalarField;
    location    "2";
    object      phi;
}
// * * * * * * * * * * * * * * * * * * * * * * * * * * * * * * * * * * * * * //

dimensions      [0 3 -1 0 0 0 0];
oriented        oriented;


internalField   nonuniform List<scalar> 
7860
(
0.0026653
0.0023347
0.00260244
6.28578e-05
0.00261618
-1.3741e-05
0.00260096
1.52131e-05
0.00260689
-5.92731e-06
0.00260008
6.81589e-06
0.00260211
-2.0382e-06
0.00259915
2.96023e-06
0.00259975
-5.98735e-07
0.00259843
1.32122e-06
0.00259855
-1.24911e-07
0.00259796
5.98059e-07
0.00259795
3.84792e-09
0.00259768
2.70763e-07
0.00259766
2.47019e-08
0.00259754
1.21693e-07
0.00259752
1.9469e-08
0.00259747
5.41884e-08
0.00259745
1.16425e-08
0.00259743
2.37727e-08
0.00259743
6.04163e-09
0.00259742
1.01929e-08
0.00259741
2.85387e-09
0.00259741
4.37142e-09
0.00259741
1.36627e-09
0.0025974
1.88131e-09
0.0025974
6.45231e-10
0.0025974
7.52633e-10
0.0025974
2.36855e-10
0.0025974
2.85881e-10
0.0025974
5.94998e-11
0.0025974
1.38229e-10
0.0025974
6.04377e-11
0.0025974
1.06474e-10
0.0025974
7.54979e-11
0.0025974
7.60703e-11
0.0025974
5.54561e-11
0.0025974
5.77628e-11
0.0025974
3.02673e-11
0.0025974
5.98548e-11
0.0025974
1.65129e-11
0.0025974
1.70321e-11
0.0025974
-2.41222e-11
0.0025974
-4.99965e-11
0.0025974
-6.80124e-11
0.0025974
-5.96258e-11
0.0025974
-7.2895e-11
0.0025974
-4.02155e-11
0.0025974
-5.43717e-11
0.0025974
-1.68125e-11
0.0025974
-9.57427e-12
0.0025974
1.73835e-11
0.0025974
1.48598e-11
0.0025974
2.7256e-11
0.0025974
-1.66683e-11
0.0025974
-5.70025e-11
0.0025974
-1.09811e-10
0.0025974
-1.13822e-10
0.0025974
-1.0424e-10
0.0025974
-3.8413e-11
0.0025974
-9.255e-12
0.0025974
4.7415e-11
0.0025974
5.2274e-11
0.0025974
4.58554e-11
0.0025974
1.60832e-11
0.0025974
-1.60968e-11
0.0025974
-4.721e-11
0.0025974
-3.1214e-11
0.0025974
-4.38515e-11
0.0025974
-1.23203e-11
0.0025974
1.02883e-11
0.0025974
2.96903e-11
0.0025974
2.46679e-11
0.0025974
2.33968e-11
0.0025974
7.29303e-12
0.0025974
3.96263e-11
0.0025974
4.33178e-11
0.0025974
6.21072e-11
0.0025974
7.24973e-11
0.0025974
9.08035e-11
0.0025974
9.59918e-11
0.0025974
1.07036e-10
0.0025974
8.65675e-11
0.0025974
7.63792e-11
0.0025974
8.83443e-11
0.0025974
7.48355e-11
0.0025974
1.57869e-10
0.0025974
1.88718e-10
0.0025974
4.43046e-10
0.0025974
5.98786e-10
0.0025974
1.4057e-09
0.0025974
2.05719e-09
0.00259739
4.84819e-09
0.00259739
7.4118e-09
0.00259737
1.75402e-08
0.00259735
1.92173e-08
0.0025973
5.24298e-08
0.00259733
-2.80731e-08
0.00259629
1.03769e-06
-2.60761e-07
0.00439865
0.00293606
0.00434233
0.000119167
0.00435433
-2.57358e-05
0.00433589
3.36523e-05
0.00434224
-1.22775e-05
0.00433369
1.53628e-05
0.00433577
-4.11267e-06
0.00433197
6.75377e-06
0.00433247
-1.10188e-06
0.00433074
3.0589e-06
0.00433076
-1.46867e-07
0.00432995
1.40863e-06
0.00432987
8.24301e-08
0.00432949
6.49781e-07
0.00432942
9.60583e-08
0.00432925
2.97973e-07
0.0043292
6.53197e-08
0.00432912
1.3529e-07
0.00432909
3.71913e-08
0.00432906
6.05054e-08
0.00432905
1.9121e-08
0.00432903
2.65631e-08
0.00432902
9.15022e-09
0.00432902
1.16724e-08
0.00432901
4.38471e-09
0.00432901
5.13767e-09
0.00432901
2.05226e-09
0.00432901
2.18321e-09
0.00432901
7.74e-10
0.004329
8.97894e-10
0.004329
2.32243e-10
0.004329
4.77273e-10
0.004329
1.84984e-10
0.004329
3.33203e-10
0.004329
1.30771e-10
0.004329
2.05172e-10
0.004329
4.16263e-12
0.004329
1.18604e-10
0.004329
-7.43653e-11
0.004329
1.12378e-10
0.004329
-7.70288e-11
0.004329
4.86777e-11
0.004329
-1.15214e-10
0.004329
-1.53576e-11
0.004329
-1.43768e-10
0.004329
2.88253e-11
0.004329
-1.26978e-10
0.004329
6.07795e-11
0.004329
-1.12998e-10
0.004329
5.38697e-11
0.004329
-8.05989e-11
0.004329
7.1081e-11
0.004329
-8.65321e-11
0.004329
5.06743e-11
0.004329
-1.68462e-10
0.004329
-1.5101e-10
0.004329
-3.81359e-10
0.004329
-2.63788e-10
0.004329
-3.52739e-10
0.004329
-6.06707e-11
0.004329
-8.45862e-11
0.004329
1.65826e-10
0.004329
8.05751e-11
0.004329
1.71387e-10
0.004329
-2.03422e-11
0.004329
8.27794e-12
0.004329
-1.81624e-10
0.004329
-4.35734e-11
0.004329
-1.63254e-10
0.004329
8.29307e-12
0.004329
-2.22665e-11
0.004329
1.22986e-10
0.004329
2.08393e-11
0.004329
1.0588e-10
0.004329
-2.97308e-11
0.004329
1.18152e-10
0.004329
5.75942e-11
0.004329
1.82462e-10
0.004329
1.39024e-10
0.004329
2.70372e-10
0.004329
2.24274e-10
0.004329
3.26392e-10
0.00432901
2.27866e-10
0.00432901
2.72315e-10
0.00432901
2.75239e-10
0.00432901
3.17883e-10
0.00432901
4.51283e-10
0.00432901
6.01671e-10
0.00432901
1.15399e-09
0.004329
1.61078e-09
0.004329
3.52107e-09
0.004329
5.34023e-09
0.00432899
1.22036e-08
0.00432898
1.89196e-08
0.00432895
4.48438e-08
0.00432892
4.89001e-08
0.00432882
1.52997e-07
0.00432883
-3.28167e-08
0.00432708
2.78242e-06
5.32166e-06
0.00495242
0.00298364
0.00492502
0.000146562
0.00492766
-2.83753e-05
0.00491524
4.60731e-05
0.00491804
-1.50787e-05
0.00491178
2.16174e-05
0.00491249
-4.82369e-06
0.00490959
9.65975e-06
0.00490956
-1.06906e-06
0.00490816
4.45877e-06
0.00490796
5.1494e-08
0.00490727
2.094e-06
0.0049071
2.56238e-07
0.00490676
9.86354e-07
0.00490665
2.10515e-07
0.00490649
4.61984e-07
0.00490642
1.31449e-07
0.00490634
2.14006e-07
0.00490631
7.24516e-08
0.00490627
9.755e-08
0.00490625
3.69015e-08
0.00490624
4.3674e-08
0.00490623
1.77326e-08
0.00490622
1.95834e-08
0.00490621
8.52259e-09
0.00490621
8.80417e-09
0.00490621
4.01016e-09
0.00490621
3.89044e-09
0.00490621
1.5767e-09
0.00490621
1.65957e-09
0.0049062
5.3244e-10
0.0049062
9.08687e-10
0.0049062
3.66432e-10
0.0049062
5.89434e-10
0.0049062
1.58603e-10
0.0049062
3.06456e-10
0.0049062
-1.38188e-10
0.0049062
1.09403e-10
0.0049062
-2.77251e-10
0.0049062
1.08897e-10
0.0049062
-2.35937e-10
0.0049062
6.4687e-11
0.0049062
-2.23876e-10
0.0049062
7.28795e-11
0.0049062
-1.67623e-10
0.0049062
2.32599e-10
0.0049062
-9.82243e-11
0.0049062
2.71373e-10
0.0049062
-1.15093e-10
0.0049062
1.82502e-10
0.0049062
-1.56588e-10
0.0049062
1.32486e-10
0.0049062
-2.32525e-10
0.0049062
6.02202e-11
0.0049062
-3.68485e-10
0.0049062
-2.65442e-10
0.0049062
-7.10111e-10
0.0049062
-4.38316e-10
0.0049062
-6.58863e-10
0.0049062
-9.02537e-11
0.0049062
-1.80722e-10
0.0049062
3.09096e-10
0.0049062
1.18096e-10
0.0049062
3.41265e-10
0.0049062
-5.32424e-11
0.0049062
6.34666e-11
0.0049062
-3.26389e-10
0.0049062
-3.5597e-11
0.0049062
-2.84028e-10
0.0049062
5.54349e-11
0.0049062
-5.65226e-11
0.0049062
2.37084e-10
0.0049062
3.3195e-14
0.0049062
1.82701e-10
0.0049062
-1.2116e-10
0.0049062
1.46397e-10
0.0049062
-2.32341e-12
0.00490621
2.52703e-10
0.00490621
1.36774e-10
0.00490621
4.15545e-10
0.00490621
3.07089e-10
0.00490621
5.25406e-10
0.00490621
3.33764e-10
0.00490621
4.53516e-10
0.00490621
4.34624e-10
0.00490621
5.64448e-10
0.00490621
7.08623e-10
0.00490621
1.02475e-09
0.00490621
1.82451e-09
0.00490621
2.66185e-09
0.0049062
5.58853e-09
0.0049062
8.78961e-09
0.00490619
1.96216e-08
0.00490618
3.08111e-08
0.00490615
7.33638e-08
0.00490612
7.93548e-08
0.004906
2.79602e-07
0.00490597
-5.72569e-09
0.0049037
5.05621e-06
1.40716e-05
0.00513035
0.00285329
0.00511605
0.000160864
0.00511613
-2.84594e-05
0.00510726
5.4943e-05
0.00510862
-1.6442e-05
0.00510386
2.63843e-05
0.00510407
-5.03273e-06
0.0051018
1.19265e-05
0.00510159
-8.62213e-07
0.00510046
5.58753e-06
0.00510021
3.05559e-07
0.00509964
2.66663e-06
0.00509945
4.48717e-07
0.00509915
1.27753e-06
0.00509903
3.32458e-07
0.00509889
6.08912e-07
0.00509882
2.01305e-07
0.00509875
2.86775e-07
0.00509871
1.09845e-07
0.00509867
1.32787e-07
0.00509865
5.59313e-08
0.00509864
6.03685e-08
0.00509863
2.7054e-08
0.00509862
2.74975e-08
0.00509862
1.3095e-08
0.00509861
1.25739e-08
0.00509861
6.20969e-09
0.00509861
5.70919e-09
0.00509861
2.51873e-09
0.00509861
2.47164e-09
0.00509861
9.18027e-10
0.0050986
1.35729e-09
0.0050986
5.89146e-10
0.0050986
8.41377e-10
0.0050986
1.77916e-10
0.0050986
3.74197e-10
0.0050986
-3.12566e-10
0.0050986
3.89433e-11
0.0050986
-5.13032e-10
0.0050986
5.58524e-11
0.0050986
-4.09263e-10
0.0050986
4.65048e-11
0.0050986
-3.28871e-10
0.0050986
1.70808e-10
0.0050986
-1.43585e-10
0.0050986
4.87876e-10
0.0050986
7.69857e-12
0.0050986
5.26997e-10
0.0050986
-5.62872e-11
0.0050986
3.29489e-10
0.0050986
-2.1434e-10
0.0050986
1.81483e-10
0.0050986
-3.72115e-10
0.0050986
5.0595e-11
0.0050986
-5.62576e-10
0.0050986
-3.94107e-10
0.0050986
-1.03749e-09
0.0050986
-6.30903e-10
0.0050986
-9.60609e-10
0.0050986
-1.31074e-10
0.0050986
-2.51272e-10
0.0050986
4.64723e-10
0.0050986
1.98176e-10
0.0050986
5.41083e-10
0.0050986
-4.67504e-11
0.0050986
1.37095e-10
0.0050986
-4.40937e-10
0.0050986
-2.1164e-11
0.0050986
-3.75312e-10
0.0050986
1.05242e-10
0.0050986
-8.28118e-11
0.0050986
3.3576e-10
0.0050986
-3.36198e-11
0.0050986
2.18314e-10
0.0050986
-2.51691e-10
0.0050986
1.01763e-10
0.00509861
-1.20981e-10
0.00509861
2.51784e-10
0.00509861
7.58142e-11
0.00509861
4.96264e-10
0.00509861
3.41249e-10
0.00509861
6.61726e-10
0.00509861
3.92523e-10
0.00509861
5.71003e-10
0.00509861
5.33408e-10
0.00509861
7.46019e-10
0.00509861
8.88047e-10
0.00509861
1.36397e-09
0.00509861
2.38189e-09
0.00509861
3.5822e-09
0.00509861
7.40827e-09
0.0050986
1.19188e-08
0.0050986
2.63338e-08
0.00509859
4.15068e-08
0.00509856
9.99963e-08
0.00509853
1.06994e-07
0.0050984
4.16756e-07
0.00509834
4.59519e-08
0.00509585
7.54794e-06
2.28453e-05
0.00518419
0.0026691
0.00517712
0.000167926
0.00517641
-2.77444e-05
0.00517023
6.1121e-05
0.00517082
-1.70359e-05
0.00516727
2.99378e-05
0.00516726
-5.02566e-06
0.00516552
1.36695e-05
0.00516527
-6.12983e-07
0.00516438
6.4741e-06
0.00516413
5.58699e-07
0.00516367
3.12935e-06
0.00516348
6.32839e-07
0.00516324
1.52e-06
0.00516313
4.48142e-07
0.005163
7.35209e-07
0.00516294
2.67681e-07
0.00516287
3.51028e-07
0.00516284
1.4572e-07
0.0051628
1.64674e-07
0.00516279
7.4457e-08
0.00516277
7.58345e-08
0.00516276
3.62587e-08
0.00516275
3.49869e-08
0.00516275
1.76575e-08
0.00516275
1.62082e-08
0.00516274
8.45089e-09
0.00516274
7.50434e-09
0.00516274
3.50337e-09
0.00516274
3.28056e-09
0.00516274
1.3198e-09
0.00516274
1.78562e-09
0.00516274
8.05432e-10
0.00516274
1.06642e-09
0.00516274
1.80164e-10
0.00516274
4.2133e-10
0.00516274
-4.95345e-10
0.00516274
-6.85905e-11
0.00516274
-7.66763e-10
0.00516274
-2.93611e-11
0.00516274
-6.00152e-10
0.00516274
9.36787e-12
0.00516274
-4.25515e-10
0.00516274
2.83553e-10
0.00516274
-7.06914e-11
0.00516274
7.90516e-10
0.00516274
1.76785e-10
0.00516274
8.26242e-10
0.00516274
4.98686e-11
0.00516274
4.84742e-10
0.00516274
-2.74103e-10
0.00516274
1.98634e-10
0.00516274
-5.34648e-10
0.00516274
1.26473e-11
0.00516274
-7.55117e-10
0.00516274
-5.13777e-10
0.00516274
-1.32778e-09
0.00516274
-7.96438e-10
0.00516274
-1.22608e-09
0.00516274
-1.59951e-10
0.00516274
-3.04113e-10
0.00516274
6.23265e-10
0.00516274
2.98429e-10
0.00516274
7.57675e-10
0.00516274
-2.93421e-12
0.00516274
2.37139e-10
0.00516274
-5.21963e-10
0.00516274
6.29323e-12
0.00516274
-4.57326e-10
0.00516274
1.37149e-10
0.00516274
-1.30942e-10
0.00516274
3.96615e-10
0.00516274
-9.14911e-11
0.00516274
2.2272e-10
0.00516274
-4.01823e-10
0.00516274
2.62439e-11
0.00516274
-2.64272e-10
0.00516274
2.14907e-10
0.00516274
-1.96954e-11
0.00516274
5.27763e-10
0.00516274
3.33215e-10
0.00516274
7.49547e-10
0.00516274
4.15121e-10
0.00516274
6.50591e-10
0.00516274
5.93227e-10
0.00516274
8.77409e-10
0.00516274
1.00031e-09
0.00516274
1.6147e-09
0.00516274
2.80609e-09
0.00516274
4.33343e-09
0.00516274
8.91907e-09
0.00516274
1.45775e-08
0.00516273
3.20875e-08
0.00516272
5.05316e-08
0.0051627
1.23538e-07
0.00516268
1.30646e-07
0.00516254
5.54288e-07
0.00516248
1.03156e-07
0.00516013
9.90166e-06
3.04685e-05
0.00519723
0.00247187
0.00519512
0.000170039
0.00519412
-2.675e-05
0.00519018
6.50613e-05
0.00519028
-1.71386e-05
0.0051878
3.24155e-05
0.00518767
-4.88643e-06
0.00518641
1.49276e-05
0.00518616
-3.61685e-07
0.00518549
7.13797e-06
0.00518527
7.84861e-07
0.00518491
3.48898e-06
0.00518475
7.93418e-07
0.00518455
1.71486e-06
0.00518445
5.49585e-07
0.00518435
8.38809e-07
0.00518429
3.26848e-07
0.00518424
4.05097e-07
0.0051842
1.78061e-07
0.00518418
1.92121e-07
0.00518416
9.14021e-08
0.00518415
8.94269e-08
0.00518414
4.47882e-08
0.00518413
4.16912e-08
0.00518413
2.19297e-08
0.00518412
1.95116e-08
0.00518412
1.0574e-08
0.00518412
9.15686e-09
0.00518412
4.44526e-09
0.00518412
4.01592e-09
0.00518412
1.70784e-09
0.00518412
2.15246e-09
0.00518412
1.01153e-09
0.00518412
1.26039e-09
0.00518412
1.87483e-10
0.00518412
4.62281e-10
0.00518412
-6.43467e-10
0.00518412
-1.89015e-10
0.00518412
-9.98481e-10
0.00518412
-1.31625e-10
0.00518412
-7.79908e-10
0.00518412
-5.5898e-11
0.00518412
-5.09797e-10
0.00518412
3.8414e-10
0.00518412
3.13028e-11
0.00518412
1.09749e-09
0.00518412
3.86487e-10
0.00518412
1.12261e-09
0.00518412
1.8859e-10
0.00518412
6.23005e-10
0.00518412
-3.2945e-10
0.00518412
1.80394e-10
0.00518412
-6.91171e-10
0.00518412
-4.96549e-11
0.00518412
-9.242e-10
0.00518412
-6.27356e-10
0.00518412
-1.56928e-09
0.00518412
-9.42449e-10
0.00518412
-1.43713e-09
0.00518412
-1.81812e-10
0.00518412
-3.20596e-10
0.00518412
7.80979e-10
0.00518411
4.29593e-10
0.00518411
9.79026e-10
0.00518411
7.91533e-11
0.00518411
3.42828e-10
0.00518411
-5.68599e-10
0.00518411
2.70547e-11
0.00518411
-5.2645e-10
0.00518411
1.40305e-10
0.00518411
-1.92054e-10
0.00518411
4.1711e-10
0.00518411
-1.5927e-10
0.00518412
1.95117e-10
0.00518412
-5.48056e-10
0.00518412
-6.90859e-11
0.00518412
-4.03572e-10
0.00518412
1.59475e-10
0.00518412
-1.18341e-10
0.00518412
5.27536e-10
0.00518412
3.11417e-10
0.00518412
8.01687e-10
0.00518412
4.26624e-10
0.00518412
7.02953e-10
0.00518412
6.31468e-10
0.00518412
9.6873e-10
0.00518412
1.06758e-09
0.00518412
1.78703e-09
0.00518412
3.11691e-09
0.00518412
4.9146e-09
0.00518412
1.0114e-08
0.00518412
1.67092e-08
0.00518411
3.67694e-08
0.00518411
5.77388e-08
0.00518409
1.43367e-07
0.00518407
1.49908e-07
0.00518394
6.83558e-07
0.00518388
1.58026e-07
0.00518186
1.19223e-05
3.66346e-05
0.00519728
0.00227459
0.00519892
0.000168398
0.00519782
-2.56438e-05
0.0051958
6.70727e-05
0.00519555
-1.68894e-05
0.00519404
3.39261e-05
0.00519382
-4.6639e-06
0.00519301
1.57386e-05
0.00519277
-1.24324e-07
0.00519232
7.58775e-06
0.00519213
9.78254e-07
0.00519188
3.74411e-06
0.00519174
9.27623e-07
0.0051916
1.85885e-06
0.00519151
6.34172e-07
0.00519143
9.18185e-07
0.00519139
3.76391e-07
0.00519134
4.47773e-07
0.00519132
2.05428e-07
0.00519129
2.14335e-07
0.00519128
1.05944e-07
0.00519127
1.00718e-07
0.00519126
5.21644e-08
0.00519125
4.73386e-08
0.00519125
2.56879e-08
0.00519125
2.23418e-08
0.00519125
1.24589e-08
0.00519124
1.05907e-08
0.00519124
5.28357e-09
0.00519124
4.64734e-09
0.00519124
2.04932e-09
0.00519124
2.44179e-09
0.00519124
1.18737e-09
0.00519124
1.41981e-09
0.00519124
1.96502e-10
0.00519124
5.09148e-10
0.00519124
-7.47815e-10
0.00519124
-3.02099e-10
0.00519124
-1.20078e-09
0.00519124
-2.35695e-10
0.00519124
-9.47687e-10
0.00519124
-1.41265e-10
0.00519124
-5.86045e-10
0.00519124
4.73521e-10
0.00519124
1.48481e-10
0.00519124
1.39836e-09
0.00519124
6.16288e-10
0.00519124
1.40744e-09
0.00519124
3.42175e-10
0.00519124
7.4199e-10
0.00519124
-3.87256e-10
0.00519124
1.3336e-10
0.00519124
-8.4502e-10
0.00519124
-1.27575e-10
0.00519124
-1.07283e-09
0.00519124
-7.28109e-10
0.00519124
-1.76446e-09
0.00519124
-1.06178e-09
0.00519124
-1.59794e-09
0.00519124
-1.94162e-10
0.00519124
-3.1283e-10
0.00519124
9.35814e-10
0.00519124
5.79602e-10
0.00519124
1.20088e-09
0.00519124
1.89713e-10
0.00519124
4.5605e-10
0.00519124
-5.85163e-10
0.00519124
4.57435e-11
0.00519124
-5.88894e-10
0.00519124
1.17677e-10
0.00519124
-2.70224e-10
0.00519124
4.02412e-10
0.00519124
-2.3777e-10
0.00519124
1.44874e-10
0.00519124
-6.83928e-10
0.00519124
-1.65251e-10
0.00519124
-5.26501e-10
0.00519124
1.04572e-10
0.00519124
-2.08436e-10
0.00519124
5.0957e-10
0.00519124
2.80956e-10
0.00519124
8.2825e-10
0.00519124
4.30097e-10
0.00519124
7.37933e-10
0.00519124
6.53818e-10
0.00519124
1.02977e-09
0.00519125
1.09853e-09
0.00519125
1.89157e-09
0.00519125
3.31965e-09
0.00519125
5.33011e-09
0.00519125
1.09906e-08
0.00519124
1.83034e-08
0.00519124
4.02994e-08
0.00519124
6.30929e-08
0.00519122
1.59159e-07
0.00519121
1.64615e-07
0.00519109
7.97875e-07
0.00519104
2.08427e-07
0.00518944
1.35209e-05
4.12946e-05
0.00519357
0.00208102
0.0051982
0.00016377
0.00519701
-2.44548e-05
0.00519668
6.73972e-05
0.00519616
-1.63642e-05
0.00519552
3.45582e-05
0.00519525
-4.38541e-06
0.00519485
1.61374e-05
0.00519464
8.71455e-08
0.00519439
7.83585e-06
0.00519423
1.13284e-06
0.00519408
3.8982e-06
0.00519398
1.0315e-06
0.00519388
1.95219e-06
0.00519382
6.99301e-07
0.00519376
9.72604e-07
0.00519373
4.14695e-07
0.0051937
4.78276e-07
0.00519367
2.26803e-07
0.00519366
2.30774e-07
0.00519365
1.17463e-07
0.00519364
1.09321e-07
0.00519363
5.80716e-08
0.00519363
5.17242e-08
0.00519362
2.87628e-08
0.00519362
2.45846e-08
0.00519362
1.40112e-08
0.00519362
1.17447e-08
0.00519362
5.97417e-09
0.00519362
5.14864e-09
0.00519362
2.3253e-09
0.00519362
2.64427e-09
0.00519362
1.32289e-09
0.00519362
1.54348e-09
0.00519362
2.07839e-10
0.00519362
5.66131e-10
0.00519362
-7.99565e-10
0.00519362
-3.94438e-10
0.00519362
-1.36626e-09
0.00519362
-3.32874e-10
0.00519362
-1.10146e-09
0.00519362
-2.44812e-10
0.00519362
-6.58615e-10
0.00519362
5.45885e-10
0.00519362
2.67572e-10
0.00519362
1.67887e-09
0.00519362
8.47796e-10
0.00519362
1.66588e-09
0.00519362
4.97875e-10
0.00519362
8.39301e-10
0.00519362
-4.4546e-10
0.00519362
6.71049e-11
0.00519362
-9.86501e-10
0.00519362
-2.11738e-10
0.00519362
-1.20009e-09
0.00519362
-8.18011e-10
0.00519362
-1.92201e-09
0.00519362
-1.16171e-09
0.00519362
-1.71804e-09
0.00519362
-2.0208e-10
0.00519362
-2.87497e-10
0.00519362
1.08465e-09
0.00519362
7.42473e-10
0.00519362
1.41922e-09
0.00519362
3.2274e-10
0.00519362
5.74773e-10
0.00519362
-5.73755e-10
0.00519362
6.38871e-11
0.00519362
-6.44735e-10
0.00519362
7.41875e-11
0.00519362
-3.606e-10
0.00519362
3.60273e-10
0.00519362
-3.22485e-10
0.00519362
7.77619e-11
0.00519362
-8.04449e-10
0.00519362
-2.53166e-10
0.00519362
-6.25427e-10
0.00519362
6.02559e-11
0.00519362
-2.81699e-10
0.00519362
4.83407e-10
0.00519362
2.48108e-10
0.00519362
8.34331e-10
0.00519362
4.26742e-10
0.00519362
7.57241e-10
0.00519362
6.61792e-10
0.00519362
1.06509e-09
0.00519362
1.09969e-09
0.00519362
1.93782e-09
0.00519362
3.42446e-09
0.00519362
5.58837e-09
0.00519362
1.15565e-08
0.00519362
1.9356e-08
0.00519362
4.26993e-08
0.00519362
6.65236e-08
0.0051936
1.70716e-07
0.00519359
1.74662e-07
0.0051935
8.92002e-07
0.00519346
2.51227e-07
0.00519231
1.4666e-05
4.44684e-05
0.00518909
0.00189194
0.00519616
0.000156698
0.00519487
-2.31646e-05
0.00519602
6.62451e-05
0.00519527
-1.56131e-05
0.00519543
3.43909e-05
0.00519512
-4.06713e-06
0.0051951
1.61551e-05
0.00519492
2.66106e-07
0.00519486
7.89425e-06
0.00519475
1.24503e-06
0.00519469
3.95535e-06
0.00519462
1.10259e-06
0.00519458
1.99581e-06
0.00519453
7.43325e-07
0.00519451
1.00174e-06
0.00519448
4.40742e-07
0.00519446
4.96094e-07
0.00519445
2.41541e-07
0.00519444
2.40997e-07
0.00519443
1.25568e-07
0.00519442
1.14988e-07
0.00519442
6.2277e-08
0.00519442
5.4696e-08
0.00519441
3.1027e-08
0.00519441
2.61574e-08
0.00519441
1.51591e-08
0.00519441
1.25749e-08
0.00519441
6.48476e-09
0.00519441
5.50243e-09
0.00519441
2.52098e-09
0.00519441
2.75594e-09
0.00519441
1.40946e-09
0.00519441
1.63046e-09
0.00519441
2.19293e-10
0.00519441
6.3394e-10
0.00519441
-7.99518e-10
0.00519441
-4.59326e-10
0.00519441
-1.49516e-09
0.00519441
-4.19862e-10
0.00519441
-1.24368e-09
0.00519441
-3.64076e-10
0.00519441
-7.31889e-10
0.00519441
5.99664e-10
0.00519441
3.78489e-10
0.00519441
1.92867e-09
0.00519441
1.06586e-09
0.00519441
1.88909e-09
0.00519441
6.44466e-10
0.00519441
9.16366e-10
0.00519441
-5.00077e-10
0.00519441
-5.85771e-12
0.00519441
-1.10808e-09
0.00519441
-2.92675e-10
0.00519441
-1.30831e-09
0.00519441
-9.01249e-10
0.00519441
-2.05452e-09
0.00519441
-1.25193e-09
0.00519441
-1.81177e-09
0.00519441
-2.11445e-10
0.00519441
-2.52489e-10
0.00519441
1.22731e-09
0.00519441
9.1454e-10
0.00519441
1.63287e-09
0.00519441
4.72634e-10
0.00519441
6.98954e-10
0.00519441
-5.37198e-10
0.00519441
8.4166e-11
0.00519441
-6.94559e-10
0.00519441
1.61033e-11
0.00519441
-4.58695e-10
0.00519441
2.98969e-10
0.00519441
-4.10383e-10
0.00519441
-6.39666e-13
0.00519441
-9.08277e-10
0.00519441
-3.26714e-10
0.00519441
-6.97493e-10
0.00519441
3.27155e-11
0.00519441
-3.34262e-10
0.00519441
4.5554e-10
0.00519441
2.14883e-10
0.00519441
8.22646e-10
0.00519441
4.13622e-10
0.00519441
7.59424e-10
0.00519441
6.53491e-10
0.00519441
1.07675e-09
0.00519441
1.07522e-09
0.00519441
1.93535e-09
0.00519441
3.44119e-09
0.00519441
5.69874e-09
0.00519441
1.18215e-08
0.00519441
1.98839e-08
0.00519441
4.39322e-08
0.00519441
6.81673e-08
0.0051944
1.77822e-07
0.0051944
1.80112e-07
0.00519433
9.61525e-07
0.0051943
2.84587e-07
0.00519361
1.5352e-05
4.62104e-05
0.00518477
0.00170716
0.00519387
0.000147599
0.00519245
-2.17479e-05
0.00519489
6.38061e-05
0.00519395
-1.4674e-05
0.00519484
3.34996e-05
0.0051945
-3.72085e-06
0.00519483
1.58216e-05
0.00519469
4.08981e-07
0.00519481
7.77495e-06
0.00519474
1.31319e-06
0.00519477
3.92008e-06
0.00519474
1.13985e-06
0.00519474
1.99106e-06
0.00519472
7.65453e-07
0.00519472
1.00575e-06
0.0051947
4.53953e-07
0.0051947
5.01067e-07
0.00519469
2.4924e-07
0.00519469
2.44783e-07
0.00519468
1.29997e-07
0.00519468
1.1752e-07
0.00519468
6.46599e-08
0.00519468
5.61839e-08
0.00519468
3.2392e-08
0.00519468
2.70206e-08
0.00519467
1.58397e-08
0.00519467
1.30511e-08
0.00519467
6.79546e-09
0.00519467
5.69757e-09
0.00519467
2.62668e-09
0.00519467
2.7759e-09
0.00519467
1.44134e-09
0.00519467
1.67913e-09
0.00519467
2.27539e-10
0.00519467
7.09396e-10
0.00519467
-7.54179e-10
0.00519467
-4.97132e-10
0.00519467
-1.59168e-09
0.00519467
-4.98514e-10
0.00519467
-1.37726e-09
0.00519467
-4.96742e-10
0.00519467
-8.07943e-10
0.00519467
6.35427e-10
0.00519467
4.75927e-10
0.00519467
2.14035e-09
0.00519467
1.26008e-09
0.00519467
2.07242e-09
0.00519467
7.73781e-10
0.00519467
9.74501e-10
0.00519467
-5.45673e-10
0.00519467
-7.33401e-11
0.00519467
-1.20315e-09
0.00519467
-3.63385e-10
0.00519467
-1.40067e-09
0.00519467
-9.83873e-10
0.00519467
-2.1742e-09
0.00519467
-1.34302e-09
0.00519467
-1.89299e-09
0.00519467
-2.28357e-10
0.00519467
-2.14521e-10
0.00519467
1.36472e-09
0.00519467
1.09482e-09
0.00519467
1.84146e-09
0.00519467
6.34526e-10
0.00519467
8.27673e-10
0.00519467
-4.78579e-10
0.00519467
1.07657e-10
0.00519467
-7.38291e-10
0.00519467
-5.04862e-11
0.00519467
-5.59035e-10
0.00519467
2.2635e-10
0.00519467
-4.97965e-10
0.00519467
-8.57508e-11
0.00519467
-9.95425e-10
0.00519467
-3.83289e-10
0.00519467
-7.42607e-10
0.00519467
2.46474e-11
0.00519467
-3.65167e-10
0.00519467
4.29599e-10
0.00519467
1.81856e-10
0.00519467
7.95286e-10
0.00519467
3.87928e-10
0.00519467
7.42706e-10
0.00519468
6.2723e-10
0.00519468
1.06612e-09
0.00519468
1.02863e-09
0.00519468
1.89315e-09
0.00519468
3.38015e-09
0.00519468
5.67383e-09
0.00519468
1.17868e-08
0.00519468
1.99e-08
0.00519468
4.40718e-08
0.00519468
6.81181e-08
0.00519468
1.80345e-07
0.00519468
1.81055e-07
0.00519463
1.00331e-06
0.00519461
3.07501e-07
0.00519438
1.55873e-05
4.65977e-05
0.00518089
0.00152627
0.00519168
0.000136813
0.00519012
-2.01855e-05
0.00519367
6.02526e-05
0.00519257
-1.35781e-05
0.00519411
3.19577e-05
0.00519375
-3.35604e-06
0.0051944
1.51673e-05
0.0051943
5.13634e-07
0.00519458
7.49077e-06
0.00519456
1.33705e-06
0.00519468
3.79765e-06
0.00519468
1.14323e-06
0.00519473
1.93993e-06
0.00519473
7.6554e-07
0.00519475
9.85311e-07
0.00519475
4.54142e-07
0.00519476
4.93361e-07
0.00519476
2.49722e-07
0.00519476
2.42128e-07
0.00519476
1.30597e-07
0.00519476
1.16861e-07
0.00519476
6.51339e-08
0.00519476
5.61464e-08
0.00519476
3.2816e-08
0.00519476
2.7135e-08
0.00519476
1.60408e-08
0.00519476
1.31645e-08
0.00519476
6.89599e-09
0.00519476
5.73144e-09
0.00519476
2.63614e-09
0.00519476
2.70922e-09
0.00519476
1.41355e-09
0.00519476
1.68876e-09
0.00519476
2.24791e-10
0.00519476
7.85942e-10
0.00519476
-6.74154e-10
0.00519476
-5.10144e-10
0.00519476
-1.6612e-09
0.00519476
-5.71284e-10
0.00519476
-1.50427e-09
0.00519476
-6.39367e-10
0.00519476
-8.86946e-10
0.00519476
6.55834e-10
0.00519476
5.58003e-10
0.00519476
2.31411e-09
0.00519476
1.42449e-09
0.00519476
2.21383e-09
0.00519476
8.80615e-10
0.00519476
1.01568e-09
0.00519476
-5.77396e-10
0.00519476
-1.26071e-10
0.00519476
-1.26554e-09
0.00519476
-4.19735e-10
0.00519476
-1.4808e-09
0.00519476
-1.07151e-09
0.00519476
-2.2891e-09
0.00519476
-1.44295e-09
0.00519476
-1.97176e-09
0.00519476
-2.5648e-10
0.00519476
-1.79392e-10
0.00519476
1.49724e-09
0.00519476
1.27772e-09
0.00519476
2.04467e-09
0.00519476
8.0122e-10
0.00519476
9.58857e-10
0.00519476
-4.01711e-10
0.00519476
1.35027e-10
0.00519476
-7.75627e-10
0.00519476
-1.1979e-10
0.00519476
-6.56224e-10
0.00519476
1.49779e-10
0.00519476
-5.81835e-10
0.00519476
-1.73425e-10
0.00519476
-1.06675e-09
0.00519476
-4.224e-10
0.00519476
-7.62894e-10
0.00519476
3.54389e-11
0.00519476
-3.75437e-10
0.00519476
4.07863e-10
0.00519476
1.50205e-10
0.00519476
7.55137e-10
0.00519476
3.4865e-10
0.00519476
7.06589e-10
0.00519476
5.82828e-10
0.00519476
1.03566e-09
0.00519476
9.6116e-10
0.00519476
1.81772e-09
0.00519477
3.25079e-09
0.00519477
5.5243e-09
0.00519477
1.1481e-08
0.00519477
1.94361e-08
0.00519477
4.31507e-08
0.00519477
6.64538e-08
0.00519477
1.78305e-07
0.00519478
1.77601e-07
0.00519476
1.01555e-06
0.00519475
3.19369e-07
0.00519495
1.53903e-05
4.57219e-05
0.0051775
0.00134877
0.00518969
0.000124622
0.00518797
-1.8466e-05
0.00519248
5.57416e-05
0.00519125
-1.23515e-05
0.00519337
2.98363e-05
0.005193
-2.98023e-06
0.00519394
1.42229e-05
0.00519388
5.79347e-07
0.00519431
7.05536e-06
0.00519433
1.31746e-06
0.00519454
3.59414e-06
0.00519457
1.11351e-06
0.00519466
1.84508e-06
0.00519469
7.44022e-07
0.00519473
9.41518e-07
0.00519474
4.41499e-07
0.00519476
4.73417e-07
0.00519477
2.4304e-07
0.00519478
2.33188e-07
0.00519478
1.27357e-07
0.00519479
1.13056e-07
0.00519479
6.36804e-08
0.00519479
5.45896e-08
0.00519479
3.22793e-08
0.00519479
2.6499e-08
0.00519479
1.5757e-08
0.00519479
1.2917e-08
0.00519479
6.7857e-09
0.00519479
5.60378e-09
0.00519479
2.55047e-09
0.00519479
2.55901e-09
0.00519479
1.32652e-09
0.00519479
1.65565e-09
0.00519479
2.09036e-10
0.00519479
8.56664e-10
0.00519479
-5.7106e-10
0.00519479
-5.03727e-10
0.00519479
-1.70958e-09
0.00519479
-6.41165e-10
0.00519479
-1.62383e-09
0.00519479
-7.87138e-10
0.00519479
-9.65481e-10
0.00519479
6.66546e-10
0.00519479
6.26965e-10
0.00519479
2.45117e-09
0.00519479
1.55951e-09
0.00519479
2.31654e-09
0.00519479
9.61954e-10
0.00519479
1.04073e-09
0.00519479
-5.92555e-10
0.00519479
-1.5886e-10
0.00519479
-1.297e-09
0.00519479
-4.61072e-10
0.00519479
-1.55164e-09
0.00519479
-1.16588e-09
0.00519479
-2.40385e-09
0.00519479
-1.55287e-09
0.00519479
-2.0517e-09
0.00519479
-2.97625e-10
0.00519479
-1.47365e-10
0.00519479
1.62493e-09
0.00519479
1.46306e-09
0.00519479
2.23959e-09
0.00519479
9.70149e-10
0.00519479
1.09045e-09
0.00519479
-3.11604e-10
0.00519479
1.64636e-10
0.00519479
-8.06123e-10
0.00519479
-1.87478e-10
0.00519479
-7.45692e-10
0.00519479
7.42552e-11
0.00519479
-6.59401e-10
0.00519479
-2.61241e-10
0.00519479
-1.1242e-09
0.00519479
-4.45976e-10
0.00519479
-7.61774e-10
0.00519479
6.14364e-11
0.00519479
-3.67271e-10
0.00519479
3.90801e-10
0.00519479
1.20184e-10
0.00519479
7.06237e-10
0.00519479
2.96723e-10
0.00519479
6.52639e-10
0.00519479
5.21756e-10
0.00519479
9.87926e-10
0.00519479
8.77394e-10
0.00519479
1.71498e-09
0.00519479
3.06119e-09
0.0051948
5.26319e-09
0.0051948
1.0924e-08
0.0051948
1.85254e-08
0.0051948
4.12201e-08
0.0051948
6.32749e-08
0.00519481
1.71807e-07
0.00519482
1.6994e-07
0.00519484
9.97589e-07
0.00519483
3.19949e-07
0.00519544
1.47869e-05
4.36847e-05
0.00517459
0.00117418
0.00518793
0.000111271
0.00518606
-1.65866e-05
0.00519138
5.04154e-05
0.00519004
-1.10165e-05
0.00519268
2.72047e-05
0.00519229
-2.59917e-06
0.0051935
1.30192e-05
0.00519347
6.06787e-07
0.00519404
6.48319e-06
0.0051941
1.25632e-06
0.00519438
3.31642e-06
0.00519444
1.05222e-06
0.00519458
1.70973e-06
0.00519462
7.01866e-07
0.00519469
8.75878e-07
0.00519471
4.16557e-07
0.00519475
4.41928e-07
0.00519476
2.29459e-07
0.00519477
2.18265e-07
0.00519478
1.20399e-07
0.00519479
1.0623e-07
0.00519479
6.03494e-08
0.0051948
5.15613e-08
0.0051948
3.07936e-08
0.0051948
2.51344e-08
0.0051948
1.49994e-08
0.0051948
1.23206e-08
0.0051948
6.47123e-09
0.0051948
5.32237e-09
0.0051948
2.37392e-09
0.0051948
2.33348e-09
0.0051948
1.18152e-09
0.0051948
1.57823e-09
0.0051948
1.75075e-10
0.0051948
9.13843e-10
0.0051948
-4.5552e-10
0.0051948
-4.81993e-10
0.0051948
-1.74117e-09
0.0051948
-7.09476e-10
0.0051948
-1.73468e-09
0.0051948
-9.33967e-10
0.0051948
-1.03943e-09
0.0051948
6.72847e-10
0.0051948
6.87107e-10
0.0051948
2.55712e-09
0.0051948
1.66768e-09
0.0051948
2.38479e-09
0.0051948
1.01876e-09
0.0051948
1.05155e-09
0.0051948
-5.91377e-10
0.0051948
-1.71438e-10
0.0051948
-1.30094e-09
0.0051948
-4.88794e-10
0.0051948
-1.61503e-09
0.0051948
-1.26579e-09
0.0051948
-2.51715e-09
0.0051948
-1.66887e-09
0.0051948
-2.13114e-09
0.0051948
-3.47869e-10
0.0051948
-1.18072e-10
0.0051948
1.74586e-09
0.0051948
1.64482e-09
0.0051948
2.42257e-09
0.0051948
1.13614e-09
0.0051948
1.21982e-09
0.0051948
-2.13374e-10
0.0051948
1.95624e-10
0.0051948
-8.29911e-10
0.0051948
-2.50292e-10
0.0051948
-8.24353e-10
0.0051948
3.65824e-12
0.0051948
-7.29391e-10
0.0051948
-3.4781e-10
0.0051948
-1.17096e-09
0.0051948
-4.5767e-10
0.0051948
-7.45079e-10
0.0051948
9.77469e-11