/*--------------------------------*- C++ -*----------------------------------*\
| =========                 |                                                 |
| \\      /  F ield         | OpenFOAM: The Open Source CFD Toolbox           |
|  \\    /   O peration     | Version:  v1906                                 |
|   \\  /    A nd           | Web:      www.OpenFOAM.com                      |
|    \\/     M anipulation  |                                                 |
\*---------------------------------------------------------------------------*/
FoamFile
{
    version     2.0;
    format      ascii;
    class       surfaceScalarField;
    location    "2";
    object      phi;
}
// * * * * * * * * * * * * * * * * * * * * * * * * * * * * * * * * * * * * * //

dimensions      [0 3 -1 0 0 0 0];
oriented        oriented;


internalField   nonuniform List<scalar> 
7860
(
0.00283434
0.00216566
0.00262121
0.000213126
0.00260886
1.2354e-05
0.00260636
2.49438e-06
0.00260908
-2.72195e-06
0.00260782
1.26567e-06
0.00260672
1.09629e-06
0.00260515
1.56743e-06
0.00260394
1.2188e-06
0.00260285
1.08361e-06
0.00260199
8.65759e-07
0.00260126
7.26373e-07
0.00260066
5.97862e-07
0.00260016
5.00379e-07
0.00259974
4.18411e-07
0.00259939
3.5318e-07
0.00259909
2.99411e-07
0.00259884
2.55025e-07
0.00259862
2.16831e-07
0.00259843
1.85863e-07
0.00259827
1.59596e-07
0.00259814
1.35651e-07
0.00259802
1.16479e-07
0.00259792
9.94018e-08
0.00259784
8.44839e-08
0.00259777
7.16589e-08
0.00259771
6.0537e-08
0.00259765
5.10869e-08
0.00259761
4.28925e-08
0.00259757
3.61847e-08
0.00259754
3.11235e-08
0.00259752
2.51976e-08
0.0025975
2.10757e-08
0.00259748
1.72081e-08
0.00259747
1.42601e-08
0.00259745
1.15246e-08
0.00259744
9.5401e-09
0.00259744
8.19087e-09
0.00259743
6.51896e-09
0.00259743
5.23384e-09
0.00259742
5.05114e-09
0.00259742
3.37e-09
0.00259741
2.94597e-09
0.00259741
2.29658e-09
0.00259741
2.06669e-09
0.00259741
1.65609e-09
0.00259741
1.35659e-09
0.00259741
1.02995e-09
0.00259741
9.25717e-10
0.00259741
6.32682e-10
0.00259741
7.58963e-10
0.00259741
7.30917e-11
0.0025974
3.3115e-10
0.0025974
1.94114e-10
0.0025974
3.70149e-10
0.0025974
2.48756e-10
0.0025974
2.09089e-10
0.0025974
1.71647e-11
0.0025974
2.52656e-10
0.0025974
1.40377e-11
0.0025974
3.59125e-10
0.0025974
8.25444e-12
0.0025974
1.48655e-10
0.0025974
-2.31743e-11
0.0025974
1.51257e-10
0.0025974
1.15804e-10
0.0025974
1.76155e-10
0.0025974
-1.02358e-10
0.0025974
1.64605e-10
0.0025974
-4.07707e-11
0.0025974
1.66931e-10
0.0025974
-8.07798e-11
0.0025974
1.34737e-10
0.0025974
1.05342e-10
0.0025974
1.57619e-10
0.0025974
4.63402e-11
0.0025974
1.9082e-10
0.0025974
4.51736e-11
0.0025974
3.80642e-10
0.0025974
4.00442e-10
0.0025974
7.18578e-10
0.0025974
7.80496e-10
0.0025974
1.20723e-09
0.0025974
1.67863e-09
0.00259739
2.47929e-09
0.00259739
3.43736e-09
0.00259739
5.00261e-09
0.00259738
6.93299e-09
0.00259737
1.00602e-08
0.00259735
1.40662e-08
0.00259734
1.96462e-08
0.00259731
2.61783e-08
0.00259728
3.35745e-08
0.00259724
3.75266e-08
0.0025972
3.34782e-08
0.00259718
2.26939e-08
0.00259708
1.0162e-07
0.00259638
6.95894e-07
0.00259378
2.60231e-06
-1.19042e-06
0.00456763
0.00259803
0.00437535
0.000405407
0.00434654
4.11602e-05
0.00434279
6.24991e-06
0.00434581
-5.73787e-06
0.00434428
2.78694e-06
0.00434266
2.7157e-06
0.00434046
3.76713e-06
0.00433868
3.00315e-06
0.00433711
2.65757e-06
0.00433583
2.13796e-06
0.00433477
1.79156e-06
0.00433389
1.47699e-06
0.00433315
1.23731e-06
0.00433254
1.03586e-06
0.00433202
8.75248e-07
0.00433157
7.42094e-07
0.00433119
6.33381e-07
0.00433087
5.40706e-07
0.00433059
4.63511e-07
0.00433035
3.98534e-07
0.00433015
3.40707e-07
0.00432997
2.9304e-07
0.00432982
2.50444e-07
0.00432969
2.13601e-07
0.00432958
1.81578e-07
0.00432949
1.53853e-07
0.00432941
1.30896e-07
0.00432934
1.10526e-07
0.00432929
9.32927e-08
0.00432924
7.98685e-08
0.0043292
6.51196e-08
0.00432916
5.4608e-08
0.00432913
4.46587e-08
0.00432911
3.74741e-08
0.00432909
3.10266e-08
0.00432908
2.53679e-08
0.00432906
2.18153e-08
0.00432905
1.76858e-08
0.00432904
1.39599e-08
0.00432904
1.29137e-08
0.00432903
9.18057e-09
0.00432903
8.00738e-09
0.00432902
6.16127e-09
0.00432902
5.41248e-09
0.00432902
4.45857e-09
0.00432901
3.53399e-09
0.00432901
3.00661e-09
0.00432901
2.55015e-09
0.00432901
1.50441e-09
0.00432901
1.93977e-09
0.00432901
6.45862e-10
0.00432901
1.20546e-09
0.00432901
7.414e-10
0.00432901
8.91342e-10
0.00432901
7.54025e-10
0.00432901
7.28659e-10
0.00432901
4.14163e-10
0.00432901
8.33406e-10
0.00432901
1.46461e-10
0.00432901
7.77072e-10
0.00432901
8.06362e-11
0.00432901
4.76274e-10
0.00432901
1.77698e-10
0.00432901
3.36508e-10
0.00432901
2.21554e-10
0.004329
4.0175e-10
0.00432901
-7.53345e-11
0.004329
4.22768e-10
0.004329
-2.10191e-11
0.004329
5.24132e-10
0.004329
7.97244e-11
0.004329
4.20938e-10
0.004329
2.79894e-10
0.004329
3.77355e-10
0.004329
1.93705e-10
0.004329
5.10477e-10
0.004329
2.73185e-10
0.004329
8.89313e-10
0.004329
9.05881e-10
0.004329
1.67798e-09
0.004329
1.97208e-09
0.004329
3.02377e-09
0.004329
4.21717e-09
0.00432899
6.20615e-09
0.00432899
8.70233e-09
0.00432898
1.26424e-08
0.00432897
1.76479e-08
0.00432895
2.53816e-08
0.00432893
3.53889e-08
0.0043289
4.93477e-08
0.00432886
6.60513e-08
0.00432881
8.59086e-08
0.00432875
9.98335e-08
0.00432867
1.04725e-07
0.00432859
1.11223e-07
0.00432827
4.17185e-07
0.00432694
2.0278e-06
0.00432236
7.18194e-06
7.90963e-06
0.00507201
0.00252602
0.00495544
0.00052198
0.00492277
7.38358e-05
0.00492051
8.50199e-06
0.00492235
-7.57713e-06
0.00492121
3.9303e-06
0.00491955
4.37804e-06
0.00491748
5.83278e-06
0.00491573
4.75519e-06
0.00491421
4.18114e-06
0.00491296
3.38308e-06
0.00491192
2.83033e-06
0.00491106
2.33667e-06
0.00491034
1.95646e-06
0.00490974
1.64026e-06
0.00490923
1.3866e-06
0.00490879
1.17661e-06
0.00490842
1.0055e-06
0.0049081
8.60367e-07
0.00490783
7.38488e-07
0.00490759
6.36139e-07
0.00490739
5.45687e-07
0.00490721
4.69978e-07
0.00490706
4.02398e-07
0.00490693
3.4442e-07
0.00490681
2.93779e-07
0.00490672
2.49689e-07
0.00490664
2.133e-07
0.00490657
1.80705e-07
0.00490651
1.52666e-07
0.00490646
1.30538e-07
0.00490641
1.07132e-07
0.00490638
9.02963e-08
0.00490635
7.42033e-08
0.00490632
6.24739e-08
0.0049063
5.21759e-08
0.00490629
4.24625e-08
0.00490627
3.64156e-08
0.00490626
2.99837e-08
0.00490625
2.36575e-08
0.00490624
2.13314e-08
0.00490624
1.56067e-08
0.00490623
1.35369e-08
0.00490623
1.04217e-08
0.00490622
9.10313e-09
0.00490622
7.65614e-09
0.00490622
5.94118e-09
0.00490621
5.06555e-09
0.00490621
4.28834e-09
0.00490621
2.47444e-09
0.00490621
3.20409e-09
0.00490621
1.43162e-09
0.00490621
2.18359e-09
0.00490621
1.43889e-09
0.00490621
1.50937e-09
0.00490621
1.37752e-09
0.00490621
1.3611e-09
0.00490621
8.8903e-10
0.00490621
1.43251e-09
0.00490621
3.07582e-10
0.00490621
1.14869e-09
0.00490621
1.66073e-10
0.00490621
7.59186e-10
0.00490621
4.01567e-10
0.00490621
5.32591e-10
0.00490621
3.27898e-10
0.00490621
6.16257e-10
0.00490621
1.23066e-11
0.00490621
7.3083e-10
0.00490621
8.15752e-11
0.0049062
9.11897e-10
0.00490621
3.23625e-10
0.00490621
7.36449e-10
0.0049062
4.87973e-10
0.0049062
6.26934e-10
0.0049062
3.80982e-10
0.0049062
8.34629e-10
0.0049062
5.52164e-10
0.0049062
1.41748e-09
0.0049062
1.43221e-09
0.0049062
2.62141e-09
0.0049062
3.19581e-09
0.0049062
4.87097e-09
0.0049062
6.82588e-09
0.00490619
1.0026e-08
0.00490619
1.41079e-08
0.00490618
2.04332e-08
0.00490617
2.85723e-08
0.00490615
4.08939e-08
0.00490613
5.69234e-08
0.0049061
7.93431e-08
0.00490606
1.06696e-07
0.004906
1.4084e-07
0.00490593
1.69587e-07
0.00490584
2.00515e-07
0.00490569
2.56509e-07
0.00490522
8.91094e-07
0.0049036
3.64743e-06
0.00489776
1.30246e-05
2.27384e-05
0.0052099
0.00231612
0.00513958
0.000592303
0.0051125
0.000100913
0.00511137
9.63373e-06
0.00511246
-8.66583e-06
0.00511163
4.75812e-06
0.00511017
5.83876e-06
0.00510843
7.57051e-06
0.00510692
6.26809e-06
0.00510561
5.48889e-06
0.00510453
4.45957e-06
0.00510364
3.72741e-06
0.00510289
3.08048e-06
0.00510227
2.57975e-06
0.00510175
2.16366e-06
0.0051013
1.83024e-06
0.00510093
1.55467e-06
0.0051006
1.33006e-06
0.00510032
1.14015e-06
0.00510008
9.80275e-07
0.00509987
8.45807e-07
0.00509969
7.27278e-07
0.00509953
6.27435e-07
0.0050994
5.38457e-07
0.00509928
4.62448e-07
0.00509918
3.9577e-07
0.00509909
3.3718e-07
0.00509901
2.88853e-07
0.00509895
2.45308e-07
0.00509889
2.07566e-07
0.00509885
1.77617e-07
0.00509881
1.4664e-07
0.00509877
1.24171e-07
0.00509875
1.02511e-07
0.00509872
8.62628e-08
0.0050987
7.23048e-08
0.00509869
5.89026e-08
0.00509867
5.04262e-08
0.00509866
4.18881e-08
0.00509865
3.31458e-08
0.00509864
2.9426e-08
0.00509864
2.18664e-08
0.00509863
1.88783e-08
0.00509863
1.46492e-08
0.00509862
1.27285e-08
0.00509862
1.08129e-08
0.00509862
8.25884e-09
0.00509861
6.93076e-09
0.00509861
5.90671e-09
0.00509861
3.47197e-09
0.00509861
4.40814e-09
0.00509861
2.23903e-09
0.00509861
3.07642e-09
0.00509861
2.15066e-09
0.00509861
2.13458e-09
0.00509861
2.01535e-09
0.00509861
1.97607e-09
0.00509861
1.32214e-09
0.00509861
1.93864e-09
0.00509861
4.59459e-10
0.00509861
1.46754e-09
0.00509861
2.65458e-10
0.00509861
9.57756e-10
0.00509861
5.68004e-10
0.00509861
6.88375e-10
0.00509861
4.39677e-10
0.00509861
8.0576e-10
0.00509861
8.84922e-11
0.0050986
9.98361e-10
0.0050986
2.04199e-10
0.0050986
1.24956e-09
0.0050986
5.65687e-10
0.0050986
1.01181e-09
0.0050986
6.84683e-10
0.0050986
8.41471e-10
0.0050986
5.54507e-10
0.0050986
1.11725e-09
0.0050986
7.98358e-10
0.0050986
1.87706e-09
0.0050986
1.908e-09
0.0050986
3.44122e-09
0.0050986
4.30184e-09
0.0050986
6.53125e-09
0.0050986
9.20949e-09
0.00509859
1.35084e-08
0.00509859
1.90258e-08
0.00509858
2.74732e-08
0.00509857
3.84063e-08
0.00509856
5.4798e-08
0.00509854
7.62149e-08
0.00509851
1.06299e-07
0.00509847
1.43709e-07
0.00509842
1.92723e-07
0.00509835
2.40287e-07
0.00509824
3.11434e-07
0.00509805
4.41162e-07
0.00509749
1.45852e-06
0.00509583
5.30043e-06
0.00508957
1.92885e-05
3.7814e-05
0.00523329
0.00208283
0.00519418
0.000631409
0.00517352
0.000121569
0.0051732
9.95687e-06
0.00517382
-9.28708e-06
0.0051733
5.28135e-06
0.00517212
7.0206e-06
0.00517075
8.9381e-06
0.00516953
7.48201e-06
0.00516849
6.53725e-06
0.00516762
5.32803e-06
0.00516689
4.45208e-06
0.00516629
3.68235e-06
0.00516579
3.08191e-06
0.00516536
2.58751e-06
0.005165
2.19101e-06
0.00516469
1.86312e-06
0.00516443
1.5958e-06
0.0051642
1.37019e-06
0.005164
1.17994e-06
0.00516383
1.01951e-06
0.00516368
8.78496e-07
0.00516354
7.59438e-07
0.00516343
6.53291e-07
0.00516333
5.62746e-07
0.00516324
4.82957e-07
0.00516317
4.12201e-07
0.0051631
3.54069e-07
0.00516305
3.01391e-07
0.005163
2.55446e-07
0.00516296
2.18886e-07
0.00516292
1.81644e-07
0.00516289
1.54338e-07
0.00516287
1.27848e-07
0.00516285
1.07491e-07
0.00516283
9.03625e-08
0.00516281
7.37864e-08
0.0051628
6.30499e-08
0.00516279
5.26631e-08
0.00516278
4.18096e-08
0.00516277
3.67227e-08
0.00516277
2.76293e-08
0.00516276
2.37814e-08
0.00516276
1.86015e-08
0.00516275
1.60392e-08
0.00516275
1.36994e-08
0.00516275
1.03408e-08
0.00516275
8.54853e-09
0.00516275
7.34568e-09
0.00516275
4.40805e-09
0.00516274
5.4663e-09
0.00516274
3.00584e-09
0.00516274
3.84999e-09
0.00516274
2.82499e-09
0.00516274
2.70568e-09
0.00516274
2.6065e-09
0.00516274
2.52768e-09
0.00516274
1.70613e-09
0.00516274
2.36504e-09
0.00516274
6.06395e-10
0.00516274
1.72069e-09
0.00516274
3.53668e-10
0.00516274
1.06685e-09
0.00516274
6.76423e-10
0.00516274
7.82723e-10
0.00516274
5.12825e-10
0.00516274
9.22557e-10
0.00516274
1.14226e-10
0.00516274
1.18314e-09
0.00516274
3.06266e-10
0.00516274
1.50685e-09
0.00516274
7.74627e-10
0.00516274
1.22028e-09
0.00516274
8.45237e-10
0.00516274
1.00455e-09
0.00516274
7.00363e-10
0.00516274
1.34529e-09
0.00516274
9.91947e-10
0.00516274
2.23008e-09
0.00516274
2.28872e-09
0.00516274
4.09344e-09
0.00516273
5.23266e-09
0.00516273
7.9267e-09
0.00516273
1.12427e-08
0.00516273
1.64754e-08
0.00516272
2.32203e-08
0.00516272
3.34374e-08
0.00516271
4.67196e-08
0.0051627
6.65001e-08
0.00516268
9.24667e-08
0.00516266
1.29145e-07
0.00516263
1.7564e-07
0.00516258
2.3936e-07
0.00516251
3.08462e-07
0.00516239
4.29327e-07
0.00516219
6.48023e-07
0.0051616
2.04248e-06
0.00516004
6.86702e-06
0.00515415
2.51723e-05
5.0945e-05
0.00522259
0.00186024
0.00520655
0.000647451
0.00519182
0.000136291
0.00519205
9.73612e-06
0.00519239
-9.627e-06
0.00519213
5.53609e-06
0.00519125
7.9045e-06
0.00519025
9.93434e-06
0.00518934
8.39082e-06
0.00518856
7.32141e-06
0.0051879
5.98382e-06
0.00518735
5.00001e-06
0.0051869
4.13859e-06
0.00518651
3.46356e-06
0.00518619
2.9106e-06
0.00518592
2.46711e-06
0.00518568
2.10015e-06
0.00518547
1.80098e-06
0.0051853
1.54864e-06
0.00518514
1.33557e-06
0.005185
1.15553e-06
0.00518488
9.97735e-07
0.00518478
8.6442e-07
0.00518469
7.45208e-07
0.00518461
6.43472e-07
0.00518454
5.53604e-07
0.00518448
4.73219e-07
0.00518442
4.07142e-07
0.00518438
3.4763e-07
0.00518434
2.95127e-07
0.0051843
2.53221e-07
0.00518428
2.11038e-07
0.00518425
1.79762e-07
0.00518423
1.49298e-07
0.00518421
1.25472e-07
0.0051842
1.05775e-07
0.00518418
8.65888e-08
0.00518417
7.38364e-08
0.00518416
6.19107e-08
0.00518415
4.9325e-08
0.00518415
4.30015e-08
0.00518414
3.27049e-08
0.00518414
2.81092e-08
0.00518413
2.20977e-08
0.00518413
1.89247e-08
0.00518413
1.62183e-08
0.00518413
1.21459e-08
0.00518412
9.89007e-09
0.00518412
8.57683e-09
0.00518412
5.23622e-09
0.00518412
6.35107e-09
0.00518412
3.69248e-09
0.00518412
4.48374e-09
0.00518412
3.4186e-09
0.00518412
3.20001e-09
0.00518412
3.13177e-09
0.00518412
3.02034e-09
0.00518412
2.04802e-09
0.00518412
2.72748e-09
0.00518412
7.39745e-10
0.00518412
1.90031e-09
0.00518412
4.14807e-10
0.00518412
1.09892e-09
0.00518412
7.29339e-10
0.00518412
8.15377e-10
0.00518412
5.24138e-10
0.00518412
9.53826e-10
0.00518412
7.65683e-11
0.00518412
1.28036e-09
0.00518412
3.75624e-10
0.00518412
1.68537e-09
0.00518412
9.38105e-10
0.00518412
1.36458e-09
0.00518412
9.6771e-10
0.00518412
1.12638e-09
0.00518412
8.17134e-10
0.00518412
1.52199e-09
0.00518412
1.12794e-09
0.00518411
2.47461e-09
0.00518411
2.56887e-09
0.00518411
4.57963e-09
0.00518411
5.96866e-09
0.00518411
9.02829e-09
0.00518411
1.28675e-08
0.00518411
1.88491e-08
0.0051841
2.65966e-08
0.0051841
3.82359e-08
0.00518409
5.33629e-08
0.00518408
7.58218e-08
0.00518407
1.05447e-07
0.00518405
1.47559e-07
0.00518403
2.01969e-07
0.00518399
2.79669e-07
0.00518392
3.70831e-07
0.00518381
5.46246e-07
0.0051836
8.58348e-07
0.00518302
2.6128e-06
0.00518165
8.24595e-06
0.0051766
3.02173e-05
6.15779e-05
0.00520394
0.0016563
0.00520547
0.000645921
0.00519608
0.000145684
0.00519665
9.16154e-06
0.00519681
-9.78423e-06
0.00519679
5.55994e-06
0.00519619
8.49679e-06
0.00519555
1.05815e-05
0.00519493
9.00604e-06
0.0051944
7.85238e-06
0.00519395
6.43397e-06
0.00519357
5.37705e-06
0.00519326
4.45426e-06
0.00519299
3.72894e-06
0.00519276
3.13645e-06
0.00519257
2.66102e-06
0.0051924
2.26745e-06
0.00519226
1.94676e-06
0.00519213
1.67624e-06
0.00519202
1.44763e-06
0.00519192
1.25421e-06
0.00519183
1.08502e-06
0.00519175
9.42059e-07
0.00519169
8.13552e-07
0.00519163
7.03814e-07
0.00519157
6.06885e-07
0.00519153
5.19574e-07
0.00519149
4.4779e-07
0.00519145
3.83342e-07
0.00519142
3.25909e-07
0.00519139
2.79944e-07
0.00519137
2.34123e-07
0.00519135
1.99834e-07
0.00519133
1.66341e-07
0.00519132
1.39818e-07
0.00519131
1.18207e-07
0.0051913
9.69829e-08
0.00519129
8.25212e-08
0.00519128
6.94038e-08
0.00519127
5.5495e-08
0.00519127
4.81556e-08
0.00519126
3.69588e-08
0.00519126
3.16929e-08
0.00519126
2.50716e-08
0.00519125
2.13262e-08
0.00519125
1.83166e-08
0.00519125
1.3665e-08
0.00519125
1.09496e-08
0.00519125
9.60162e-09
0.00519125
5.9483e-09
0.00519125
7.06863e-09
0.00519125
4.28234e-09
0.00519125
4.97655e-09
0.00519125
3.91098e-09
0.00519124
3.62438e-09
0.00519124
3.59306e-09
0.00519124
3.46281e-09
0.00519124
2.33301e-09
0.00519124
3.01901e-09
0.00519124
8.43222e-10
0.00519124
2.01155e-09
0.00519124
4.4767e-10
0.00519124
1.07886e-09
0.00519124
7.39708e-10
0.00519124
8.06361e-10
0.00519124
4.7995e-10
0.00519124
9.22099e-10
0.00519124
-4.2158e-12
0.00519124
1.323e-09
0.00519124
4.27858e-10
0.00519124
1.81038e-09
0.00519124
1.06322e-09
0.00519124
1.46362e-09
0.00519124
1.0624e-09
0.00519124
1.22412e-09
0.00519124
9.04078e-10
0.00519124
1.64933e-09
0.00519124
1.20266e-09
0.00519124
2.62042e-09
0.00519124
2.7525e-09
0.00519124
4.90761e-09
0.00519124
6.49508e-09
0.00519124
9.8203e-09
0.00519124
1.40627e-08
0.00519124
2.06105e-08
0.00519123
2.90897e-08
0.00519123
4.18401e-08
0.00519122
5.83026e-08
0.00519122
8.27453e-08
0.00519121
1.1512e-07
0.00519119
1.61465e-07
0.00519117
2.22451e-07
0.00519114
3.12773e-07
0.00519109
4.25622e-07
0.00519098
6.55546e-07
0.00519078
1.05846e-06
0.00519026
3.13039e-06
0.00518912
9.37895e-06
0.00518513
3.42133e-05
6.96149e-05
0.00518537
0.00147094
0.00520053
0.000630753
0.00519585
0.000150365
0.00519664
8.37733e-06
0.00519666
-9.8037e-06
0.00519682
5.39572e-06
0.0051965
8.81536e-06
0.00519618
1.09088e-05
0.00519583
9.3466e-06
0.00519554
8.14648e-06
0.00519528
6.6902e-06
0.00519507
5.59298e-06
0.00519488
4.63728e-06
0.00519473
3.88407e-06
0.0051946
3.26982e-06
0.00519448
2.7765e-06
0.00519438
2.36796e-06
0.00519429
2.03546e-06
0.00519421
1.75481e-06
0.00519414
1.51753e-06
0.00519408
1.31666e-06
0.00519402
1.14095e-06
0.00519397
9.92492e-07
0.00519393
8.58289e-07
0.00519389
7.43652e-07
0.00519385
6.42663e-07
0.00519382
5.51078e-07
0.0051938
4.75729e-07
0.00519377
4.08148e-07
0.00519375
3.47366e-07
0.00519373
2.98653e-07
0.00519371
2.50476e-07
0.0051937
2.14207e-07
0.00519369
1.78695e-07
0.00519368
1.50292e-07
0.00519367
1.27434e-07
0.00519366
1.04739e-07
0.00519365
8.89331e-08
0.00519365
7.50043e-08
0.00519364
6.02066e-08
0.00519364
5.21136e-08
0.00519363
4.02528e-08
0.00519363
3.45719e-08
0.00519363
2.74464e-08
0.00519363
2.32016e-08
0.00519363
1.99583e-08
0.00519362
1.49011e-08
0.00519362
1.17414e-08
0.00519362
1.043e-08
0.00519362
6.55451e-09
0.00519362
7.6349e-09
0.00519362
4.77923e-09
0.00519362
5.34561e-09
0.00519362
4.30941e-09
0.00519362
3.99311e-09
0.00519362
3.9849e-09
0.00519362
3.83911e-09
0.00519362
2.53247e-09
0.00519362
3.22566e-09
0.00519362
9.10502e-10
0.00519362
2.06819e-09
0.00519362
4.61936e-10
0.00519362
1.03607e-09
0.00519362
7.31695e-10
0.00519362
7.86577e-10
0.00519362
4.10057e-10
0.00519362
8.70535e-10
0.00519362
-8.40044e-11
0.00519362
1.3592e-09
0.00519362
4.89856e-10
0.00519362
1.91007e-09
0.00519362
1.16374e-09
0.00519362
1.53753e-09
0.00519362
1.14132e-09
0.00519362
1.30832e-09
0.00519362
9.58602e-10
0.00519362
1.72559e-09
0.00519362
1.21833e-09
0.00519362
2.68009e-09
0.00519362
2.84166e-09
0.00519362
5.07963e-09
0.00519362
6.80151e-09
0.00519362
1.02992e-08
0.00519361
1.48353e-08
0.00519361
2.18006e-08
0.00519361
3.0716e-08
0.00519361
4.41576e-08
0.00519361
6.15688e-08
0.0051936
8.73039e-08
0.00519359
1.21523e-07
0.00519359
1.70867e-07
0.00519357
2.36937e-07
0.00519355
3.37993e-07
0.0051935
4.70696e-07
0.0051934
7.50968e-07
0.00519323
1.23522e-06
0.00519279
3.56399e-06
0.00519194
1.02333e-05
0.00518908
3.70733e-05
7.50833e-05
0.00516893
0.001302
0.00519488
0.000604807
0.00519434
0.000150901
0.00519523
7.49207e-06
0.00519512
-9.6989e-06
0.00519543
5.08786e-06
0.00519536
8.8834e-06
0.00519532
1.09464e-05
0.00519524
9.43408e-06
0.00519516
8.222e-06
0.00519508
6.76637e-06
0.00519502
5.65913e-06
0.00519496
4.6966e-06
0.00519491
3.9359e-06
0.00519486
3.3161e-06
0.00519482
2.81801e-06
0.00519478
2.40539e-06
0.00519475
2.07005e-06
0.00519471
1.78672e-06
0.00519468
1.54712e-06
0.00519466
1.34426e-06
0.00519463
1.16642e-06
0.00519461
1.01629e-06
0.00519459
8.79912e-07
0.00519457
7.63382e-07
0.00519455
6.61157e-07
0.00519453
5.6779e-07
0.00519452
4.90794e-07
0.0051945
4.21854e-07
0.00519449
3.59316e-07
0.00519448
3.09178e-07
0.00519447
2.59908e-07
0.00519446
2.22722e-07
0.00519445
1.8622e-07
0.00519445
1.56744e-07
0.00519444
1.33269e-07
0.00519444
1.09705e-07
0.00519443
9.29561e-08
0.00519443
7.86532e-08
0.00519443
6.3408e-08
0.00519442
5.48608e-08
0.00519442
4.26171e-08
0.00519442
3.66357e-08
0.00519442
2.91833e-08
0.00519442
2.44672e-08
0.00519441
2.11168e-08
0.00519441
1.58511e-08
0.00519441
1.22719e-08
0.00519441
1.10584e-08
0.00519441
7.05039e-09
0.00519441
8.08883e-09
0.00519441
5.19027e-09
0.00519441
5.60208e-09
0.00519441
4.62079e-09
0.00519441
4.30048e-09
0.00519441
4.28608e-09
0.00519441
4.12247e-09
0.00519441
2.63178e-09
0.00519441
3.34808e-09
0.00519441
9.53409e-10
0.00519441
2.08923e-09
0.00519441
4.74008e-10
0.00519441
9.96435e-10
0.00519441
7.29966e-10
0.00519441
7.80854e-10
0.00519441
3.49434e-10
0.00519441
8.38759e-10
0.00519441
-1.24099e-10
0.00519441
1.42031e-09
0.00519441
5.75567e-10
0.00519441
1.99831e-09
0.00519441
1.24906e-09
0.00519441
1.59651e-09
0.00519441
1.20865e-09
0.00519441
1.37867e-09
0.00519441
9.77526e-10
0.00519441
1.74705e-09
0.00519441
1.18156e-09
0.00519441
2.66208e-09
0.00519441
2.83492e-09
0.00519441
5.09266e-09
0.00519441
6.87143e-09
0.00519441
1.05234e-08
0.00519441
1.52136e-08
0.00519441
2.23658e-08
0.00519441
3.15478e-08
0.0051944
4.53237e-08
0.0051944
6.31796e-08
0.0051944
8.95431e-08
0.0051944
1.24709e-07
0.00519439
1.75801e-07
0.00519438
2.45323e-07
0.00519437
3.54699e-07
0.00519433
5.04043e-07
0.00519426
8.26991e-07
0.00519412
1.3777e-06
0.00519379
3.89155e-06
0.00519323
1.07901e-05
0.00519153
3.87743e-05
7.80782e-05
0.00515491
0.00114709
0.00518949
0.000570229
0.00519259
0.000147801
0.0051935
6.58145e-06
0.00519327
-9.46732e-06
0.00519368
4.67806e-06
0.00519384
8.72629e-06
0.00519406
1.07242e-05
0.0051942
9.29101e-06
0.00519433
8.0981e-06
0.00519441
6.6773e-06
0.00519449
5.58746e-06
0.00519454
4.64156e-06
0.00519459
3.89183e-06
0.00519462
3.28123e-06
0.00519465
2.79055e-06
0.00519467
2.3839e-06
0.00519468
2.05386e-06
0.0051947
1.77464e-06
0.0051947
1.53851e-06
0.00519471
1.33862e-06
0.00519471
1.16269e-06
0.00519472
1.01445e-06
0.00519472
8.79318e-07
0.00519472
7.63715e-07
0.00519471
6.62794e-07
0.00519471
5.6995e-07
0.00519471
4.93099e-07
0.00519471
4.24518e-07
0.0051947
3.61823e-07
0.0051947
3.11577e-07
0.0051947
2.62429e-07
0.0051947
2.25357e-07
0.00519469
1.88868e-07
0.00519469
1.5908e-07
0.00519469
1.35594e-07
0.00519469
1.11797e-07
0.00519469
9.45645e-08
0.00519468
8.03293e-08
0.00519468
6.50674e-08
0.00519468
5.63401e-08
0.00519468
4.394e-08
0.00519468
3.78157e-08
0.00519468
3.0206e-08
0.00519468
2.5124e-08
0.00519468
2.17669e-08
0.00519468
1.64752e-08
0.00519468
1.25488e-08
0.00519468
1.14734e-08
0.00519468
7.45265e-09
0.00519467
8.40928e-09
0.00519467
5.46117e-09
0.00519467
5.74257e-09
0.00519467
4.83095e-09
0.00519467
4.51948e-09
0.00519467
4.47056e-09
0.00519467
4.30023e-09
0.00519467
2.64039e-09
0.00519467
3.40947e-09
0.00519467
9.86057e-10
0.00519467
2.09053e-09
0.00519467
4.90767e-10
0.00519467
9.77749e-10
0.00519467
7.33303e-10
0.00519467
8.03084e-10
0.00519467
3.09901e-10
0.00519467
8.39959e-10
0.00519467
-1.20621e-10
0.00519467
1.50399e-09
0.00519467
6.72987e-10
0.00519467
2.07116e-09
0.00519467
1.31475e-09
0.00519467
1.63922e-09
0.00519467
1.253e-09
0.00519467
1.43489e-09
0.00519467
9.49335e-10
0.00519467
1.72269e-09
0.00519467
1.09747e-09
0.00519467
2.58024e-09
0.00519467
2.73012e-09
0.00519467
4.9358e-09
0.00519467
6.81126e-09
0.00519467
1.04814e-08
0.00519467
1.52067e-08
0.00519467
2.23982e-08
0.00519467
3.15858e-08
0.00519467
4.53674e-08
0.00519467
6.3192e-08
0.00519467
8.95342e-08
0.00519467
1.24773e-07
0.00519467
1.76356e-07
0.00519467
2.47581e-07
0.00519466
3.62401e-07
0.00519464
5.2406e-07
0.00519459
8.79217e-07
0.00519449
1.47768e-06
0.00519428
4.09838e-06
0.00519403
1.10406e-05
0.00519347
3.93347e-05
7.87402e-05
0.0051431
0.00100399
0.00518464
0.000528687
0.00519093
0.000141511
0.00519182
5.6934e-06
0.00519145
-9.1006e-06
0.00519193
4.2029e-06
0.00519228
8.36994e-06
0.00519274
1.02713e-05
0.00519309
8.9402e-06
0.00519339
7.79411e-06
0.00519363
6.4381e-06
0.00519383
5.39009e-06
0.00519399
4.48172e-06
0.00519412
3.75964e-06
0.00519423
3.17167e-06
0.00519432
2.69952e-06
0.0051944
2.30795e-06
0.00519446
1.99048e-06
0.00519451
1.72151e-06
0.00519456
1.49406e-06
0.00519459
1.30164e-06
0.00519463
1.13138e-06
0.00519465
9.88364e-07
0.00519467
8.57678e-07
0.00519469
7.45572e-07
0.00519471
6.48211e-07
0.00519472
5.58049e-07
0.00519473
4.83059e-07
0.00519473
4.16467e-07
0.00519474
3.55178e-07
0.00519475
3.06093e-07
0.00519475
2.58202e-07
0.00519475
2.22202e-07
0.00519476
1.86667e-07
0.00519476
1.57291e-07
0.00519476
1.34378e-07
0.00519476
1.11009e-07
0.00519476
9.3782e-08
0.00519476
8.00226e-08
0.00519476
6.51234e-08
0.00519476
5.64692e-08
0.00519476
4.41331e-08
0.00519476
3.80179e-08
0.00519476
3.04583e-08
0.00519476
2.51429e-08
0.00519476
2.1857e-08
0.00519476
1.67296e-08
0.00519476
1.25293e-08
0.00519476
1.16361e-08
0.00519476
7.65088e-09
0.00519476
8.51621e-09
0.00519476
5.56931e-09
0.00519476
5.74338e-09
0.00519476
4.91711e-09
0.00519476
4.61874e-09
0.00519476
4.52996e-09
0.00519476
4.37742e-09
0.00519476
2.59437e-09
0.00519476
3.4291e-09
0.00519476
1.00718e-09
0.00519476
2.07758e-09
0.00519476
5.14468e-10
0.00519476
9.57276e-10
0.00519476
7.46603e-10
0.00519476
8.24604e-10
0.00519476
2.72774e-10
0.00519476
8.50761e-10
0.00519476
-9.90883e-11
0.00519476
1.58346e-09
0.00519476
7.53705e-10
0.00519476
2.10821e-09
0.00519476
1.35476e-09
0.00519476
1.65079e-09
0.00519476
1.2843e-09
0.00519476
1.45702e-09
0.00519476
9.0136e-10
0.00519476
1.65684e-09
0.00519476
9.84257e-10
0.00519476
2.43326e-09
0.00519476
2.53246e-09
0.00519476
4.68064e-09
0.00519476
6.53828e-09
0.00519476
1.01622e-08
0.00519476
1.48191e-08
0.00519476
2.18992e-08
0.00519476
3.08606e-08
0.00519476
4.4324e-08
0.00519477
6.1679e-08
0.00519477
8.73859e-08
0.00519477
1.21856e-07
0.00519477
1.72681e-07
0.00519478
2.43781e-07
0.00519478
3.60812e-07
0.00519477
5.29624e-07
0.00519475
9.04507e-07
0.0051947
1.52953e-06
0.00519462
4.17605e-06
0.00519467
1.09848e-05
0.00519521
3.88017e-05
7.72378e-05
0.00513321
0.000870784
0.00518038
0.000481509
0.00518946
0.000132438
0.0051903
4.85472e-06
0.00518979
-8.59068e-06
0.0051903
3.69284e-06
0.00519083
7.83995e-06
0.00519148
9.61543e-06
0.00519202
8.40422e-06
0.00519248
7.32916e-06
0.00519286
6.06382e-06
0.00519317
5.07924e-06
0.00519343
4.22687e-06
0.00519364
3.54743e-06
0.00519381
2.99422e-06
0.00519396
2.55058e-06
0.00519409
2.18214e-06
0.0051942
1.88368e-06
0.00519429
1.6305e-06
0.00519436
1.41644e-06
0.00519443
1.23554e-06
0.00519449
1.07444e-06
0.00519454
9.39687e-07
0.00519458
8.16357e-07
0.00519461
7.10077e-07
0.00519464
6.18284e-07
0.00519467
5.32848e-07
0.00519469
4.61367e-07
0.00519471
3.9826e-07
0.00519472
3.39848e-07
0.00519473
2.93112e-07
0.00519474
2.47507e-07
0.00519475
2.13448e-07
0.00519476
1.79731e-07
0.00519477
1.51469e-07
0.00519477
1.29684e-07
0.00519477
1.07395e-07
0.00519478
9.06529e-08
0.00519478
7.77212e-08
0.00519478
6.35059e-08
0.00519478
5.51748e-08
0.00519478
4.31202e-08
0.00519479
3.71794e-08
0.00519479
2.98917e-08
0.00519479
2.44826e-08
0.00519479
2.13403e-08
0.00519479
1.65352e-08
0.00519479
1.21636e-08
0.00519479
1.14617e-08
0.00519479
7.58032e-09
0.00519479
8.37584e-09
0.00519479
5.47411e-09
0.00519479
5.58392e-09
0.00519479
4.8606e-09
0.00519479
4.58644e-09
0.00519479
4.46717e-09
0.00519479
4.37886e-09
0.00519479
2.51027e-09
0.00519479
3.41815e-09
0.00519479
1.02114e-09
0.00519479
2.0552e-09
0.00519479
5.28676e-10
0.00519479
9.35513e-10
0.00519479
7.35391e-10
0.00519479
8.21042e-10
0.00519479
2.18344e-10
0.00519479
8.52977e-10
0.00519479
-8.23484e-11
0.00519479
1.64059e-09
0.00519479
8.03892e-10
0.00519479
2.11437e-09
0.00519479
1.37385e-09
0.00519479
1.64908e-09
0.00519479
1.2904e-09
0.00519479
1.46799e-09
0.00519479
8.24473e-10
0.00519479
1.5574e-09
0.00519479
8.28476e-10
0.00519479
2.21569e-09
0.00519479
2.24162e-09
0.00519479
4.27803e-09
0.00519479
6.06419e-09
0.00519479
9.57779e-09
0.00519479
1.40665e-08
0.00519479
2.08835e-08
0.00519479
2.9406e-08
0.0051948
4.22559e-08
0.0051948
5.87403e-08
0.0051948
8.32423e-08
0.00519481
1.16142e-07
0.00519482
1.64986e-07
0.00519483
2.34093e-07
0.00519484
3.49882e-07
0.00519485
5.20135e-07
0.00519485
9.01015e-07
0.00519485
1.53015e-06
0.0051949
4.12179e-06
0.00519526
1.06305e-05
0.00519681
3.72437e-05
7.37573e-05
0.00512496
0.000745822
0.0051767
0.000429771
0.00518819
0.000120952
0.00518896
4.07732e-06
0.00518831
-7.93321e-06
0.00518883
3.17181e-06
0.00518951
7.16095e-06
0.00519034
8.78329e-06
0.00519104
7.70517e-06
0.00519165
6.72192e-06
0.00519214
5.56946e-06
0.00519255
4.66723e-06
0.00519289
3.88706e-06
0.00519318
3.26355e-06
0.00519342
2.75591e-06
0.00519362
2.34949e-06
0.00519379
2.01125e-06
0.00519393
1.73751e-06
0.00519406
1.5051e-06
0.00519417
1.30863e-06
0.00519426
1.14282e-06
0.00519434
9.94058e-07
0.00519441
8.70291e-07
0.00519447
7.56895e-07
0.00519452
6.58572e-07
0.00519456
5.74157e-07
0.0051946
4.95348e-07
0.00519463
4.28933e-07
0.00519466
3.7063e-07
0.00519468
3.16427e-07
0.0051947
2.73131e-07
0.00519472
2.30727e-07
0.00519473
1.99389e-07
0.00519475
1.68279e-07
0.00519476
1.41808e-07
0.00519476
1.21653e-07
0.00519477
1.0104e-07
0.00519478
8.52357e-08
0.00519478
7.34249e-08
0.00519478
6.01707e-08
0.00519479
5.24134e-08
0.00519479
4.08627e-08
0.00519479
3.52665e-08
0.00519479
2.84718e-08
0.00519479
2.31202e-08
0.00519479
2.01821e-08
0.0051948
1.58407e-08
0.0051948
1.14162e-08
0.0051948
1.09234e-08
0.0051948
7.20307e-09
0.0051948
7.96772e-09
0.0051948
5.15681e-09
0.0051948
5.25708e-09
0.0051948
4.66792e-09
0.0051948
4.43141e-09
0.0051948
4.30324e-09
0.0051948
4.31819e-09
0.0051948
2.40564e-09
0.0051948
3.38538e-09
0.0051948
1.02616e-09
0.0051948
2.01566e-09
0.0051948
5.29415e-10
0.0051948
8.88512e-10
0.0051948
6.855e-10
0.0051948
7.70307e-10
0.0051948
1.3158e-10
0.0051948
8.27868e-10
0.0051948
-8.47199e-11
0.0051948
1.66463e-09
0.0051948
8.2113e-10
0.0051948
2.08894e-09
0.0051948
1.37695e-09
0.0051948
1.62946e-09
0.0051948
1.27382e-09
0.0051948
1.4512e-09
0.0051948
7.21698e-10
0.0051948
1.41994e-09
0.0051948
6.27278e-10
0.0051948
1.92226e-09
0.0051948
1.85161e-09
0.0051948
3.73882e-09
0.0051948
5.40839e-09
0.0051948
8.7508e-09
0.0051948
1.29732e-08
0.0051948
1.93835e-08
0.00519481