/*--------------------------------*- C++ -*----------------------------------*\
| =========                 |                                                 |
| \\      /  F ield         | OpenFOAM: The Open Source CFD Toolbox           |
|  \\    /   O peration     | Version:  v1906                                 |
|   \\  /    A nd           | Web:      www.OpenFOAM.com                      |
|    \\/     M anipulation  |                                                 |
\*---------------------------------------------------------------------------*/
FoamFile
{
    version     2.0;
    format      ascii;
    class       surfaceScalarField;
    location    "2";
    object      phiB;
}
// * * * * * * * * * * * * * * * * * * * * * * * * * * * * * * * * * * * * * //

dimensions      [1 2 -2 0 0 -1 0];
oriented        oriented;


internalField   nonuniform List<scalar> 
7860
(
0.00149797
0.399452
0.0019395
0.399558
0.00222025
0.399719
0.00243758
0.399783
0.00257993
0.399858
0.00266147
0.399918
0.00269989
0.399962
0.00271019
0.39999
0.00270362
0.400007
0.00268757
0.400016
0.0026669
0.400021
0.00264463
0.400022
0.00262261
0.400022
0.00260191
0.400021
0.00258307
0.400019
0.00256634
0.400017
0.00255172
0.400015
0.00253912
0.400013
0.00252838
0.400011
0.0025193
0.400009
0.00251167
0.400008
0.00250531
0.400006
0.00250002
0.400005
0.00249565
0.400004
0.00249205
0.400004
0.0024891
0.400003
0.00248668
0.400002
0.00248471
0.400002
0.0024831
0.400002
0.00248179
0.400001
0.00248074
0.400001
0.00247988
0.400001
0.00247919
0.400001
0.00247864
0.400001
0.00247819
0.4
0.00247783
0.4
0.00247755
0.4
0.00247732
0.4
0.00247714
0.4
0.00247699
0.4
0.00247687
0.4
0.00247678
0.4
0.00247671
0.4
0.00247665
0.4
0.00247661
0.4
0.00247657
0.4
0.00247654
0.4
0.00247652
0.4
0.0024765
0.4
0.00247649
0.4
0.00247648
0.4
0.00247647
0.4
0.00247647
0.4
0.00247646
0.4
0.00247646
0.4
0.00247646
0.4
0.00247645
0.4
0.00247645
0.4
0.00247645
0.4
0.00247645
0.4
0.00247645
0.4
0.00247645
0.4
0.00247645
0.4
0.00247645
0.4
0.00247644
0.4
0.00247644
0.4
0.00247644
0.4
0.00247644
0.4
0.00247644
0.4
0.00247644
0.4
0.00247644
0.4
0.00247644
0.4
0.00247643
0.4
0.00247643
0.4
0.00247642
0.4
0.00247642
0.4
0.00247641
0.4
0.00247639
0.4
0.00247638
0.4
0.00247636
0.4
0.00247633
0.4
0.00247629
0.4
0.00247624
0.4
0.00247618
0.4
0.00247611
0.4
0.00247602
0.4
0.00247591
0.4
0.00247579
0.4
0.00247565
0.4
0.00247552
0.4
0.00247542
0.4
0.00247539
0.4
0.00247551
0.4
0.00247591
0.4
0.00247671
0.399999
0.00247799
0.399999
0.00247923
0.399999
0.00247901
0.4
0.00247355
0.400005
0.400015
0.00308724
0.398381
0.00378572
0.39886
0.00422993
0.399275
0.00454946
0.399463
0.00475546
0.399652
0.00487495
0.399799
0.00493303
0.399903
0.00495132
0.399971
0.00494543
0.400012
0.00492587
0.400036
0.00489942
0.400047
0.00487037
0.400051
0.00484135
0.400051
0.00481388
0.400048
0.00478877
0.400044
0.00476639
0.400039
0.00474679
0.400034
0.00472987
0.40003
0.0047154
0.400025
0.00470316
0.400021
0.00469286
0.400018
0.00468425
0.400015
0.00467709
0.400012
0.00467117
0.40001
0.00466629
0.400008
0.00466227
0.400007
0.00465899
0.400006
0.0046563
0.400005
0.00465411
0.400004
0.00465233
0.400003
0.00465089
0.400002
0.00464973
0.400002
0.00464879
0.400002
0.00464803
0.400001
0.00464742
0.400001
0.00464693
0.400001
0.00464654
0.400001
0.00464622
0.400001
0.00464597
0.4
0.00464577
0.4
0.00464562
0.4
0.00464549
0.4
0.00464539
0.4
0.00464531
0.4
0.00464525
0.4
0.0046452
0.4
0.00464516
0.4
0.00464513
0.4
0.00464511
0.4
0.00464509
0.4
0.00464508
0.4
0.00464507
0.4
0.00464506
0.4
0.00464505
0.4
0.00464504
0.4
0.00464504
0.4
0.00464504
0.4
0.00464504
0.4
0.00464503
0.4
0.00464503
0.4
0.00464503
0.4
0.00464503
0.4
0.00464503
0.4
0.00464503
0.4
0.00464503
0.4
0.00464503
0.4
0.00464502
0.4
0.00464502
0.4
0.00464502
0.4
0.00464502
0.4
0.00464502
0.4
0.00464502
0.4
0.00464501
0.4
0.00464501
0.4
0.004645
0.4
0.00464499
0.4
0.00464497
0.4
0.00464496
0.4
0.00464493
0.4
0.00464491
0.4
0.00464487
0.4
0.00464482
0.4
0.00464475
0.4
0.00464467
0.4
0.00464458
0.4
0.00464446
0.4
0.00464431
0.4
0.00464415
0.4
0.00464398
0.4
0.00464383
0.4
0.00464372
0.4
0.00464373
0.4
0.00464399
0.4
0.00464467
0.399999
0.00464598
0.399998
0.00464803
0.399997
0.00465015
0.399997
0.0046504
0.4
0.00464267
0.400013
0.400035
0.00370668
0.397097
0.0044894
0.398077
0.0049959
0.398769
0.00533845
0.399121
0.00555494
0.399435
0.00568147
0.399672
0.00574499
0.39984
0.00576792
0.399948
0.00576591
0.400014
0.00574962
0.400052
0.00572589
0.400071
0.00569911
0.400078
0.00567197
0.400078
0.00564605
0.400074
0.00562222
0.400068
0.00560089
0.40006
0.00558214
0.400053
0.00556591
0.400046
0.005552
0.400039
0.00554021
0.400033
0.00553027
0.400028
0.00552195
0.400023
0.00551503
0.400019
0.00550929
0.400016
0.00550455
0.400013
0.00550066
0.400011
0.00549746
0.400009
0.00549485
0.400007
0.00549272
0.400006
0.00549099
0.400005
0.00548958
0.400004
0.00548844
0.400003
0.00548753
0.400003
0.00548678
0.400002
0.00548619
0.400002
0.00548571
0.400001
0.00548533
0.400001
0.00548502
0.400001
0.00548477
0.400001
0.00548458
0.400001
0.00548442
0.4
0.0054843
0.4
0.0054842
0.4
0.00548413
0.4
0.00548406
0.4
0.00548402
0.4
0.00548398
0.4
0.00548395
0.4
0.00548392
0.4
0.00548391
0.4
0.00548389
0.4
0.00548388
0.4
0.00548387
0.4
0.00548387
0.4
0.00548386
0.4
0.00548386
0.4
0.00548385
0.4
0.00548385
0.4
0.00548385
0.4
0.00548385
0.4
0.00548385
0.4
0.00548385
0.4
0.00548385
0.4
0.00548384
0.4
0.00548384
0.4
0.00548384
0.4
0.00548384
0.4
0.00548384
0.4
0.00548384
0.4
0.00548384
0.4
0.00548384
0.4
0.00548383
0.4
0.00548383
0.4
0.00548382
0.4
0.00548382
0.4
0.00548381
0.4
0.00548379
0.4
0.00548378
0.4
0.00548375
0.4
0.00548373
0.4
0.00548369
0.4
0.00548364
0.4
0.00548358
0.4
0.0054835
0.4
0.00548341
0.4
0.0054833
0.4
0.00548316
0.4
0.00548302
0.4
0.00548287
0.4
0.00548275
0.4
0.00548269
0.4
0.00548278
0.4
0.00548314
0.399999
0.00548399
0.399998
0.00548554
0.399996
0.005488
0.399994
0.00549089
0.399994
0.00549256
0.399998
0.00548748
0.400018
0.400048
0.00373712
0.395737
0.00458022
0.397234
0.00513563
0.398213
0.00549614
0.39876
0.00572076
0.399211
0.00585243
0.399541
0.00592044
0.399772
0.00594755
0.399921
0.00594931
0.400013
0.00593632
0.400065
0.00591544
0.400092
0.00589109
0.400102
0.005866
0.400103
0.00584182
0.400098
0.00581944
0.40009
0.0057993
0.400081
0.00578155
0.400071
0.00576613
0.400061
0.0057529
0.400052
0.00574165
0.400044
0.00573216
0.400037
0.00572421
0.400031
0.00571758
0.400026
0.00571208
0.400022
0.00570753
0.400018
0.00570379
0.400015
0.00570072
0.400012
0.0056982
0.40001
0.00569615
0.400008
0.00569448
0.400006
0.00569313
0.400005
0.00569203
0.400004
0.00569114
0.400003
0.00569043
0.400003
0.00568985
0.400002
0.00568939
0.400002
0.00568901
0.400001
0.00568872
0.400001
0.00568848
0.400001
0.00568829
0.400001
0.00568814
0.400001
0.00568802
0.4
0.00568793
0.4
0.00568785
0.4
0.00568779
0.4
0.00568774
0.4
0.00568771
0.4
0.00568768
0.4
0.00568766
0.4
0.00568764
0.4
0.00568762
0.4
0.00568761
0.4
0.0056876
0.4
0.0056876
0.4
0.00568759
0.4
0.00568759
0.4
0.00568759
0.4
0.00568758
0.4
0.00568758
0.4
0.00568758
0.4
0.00568758
0.4
0.00568758
0.4
0.00568758
0.4
0.00568758
0.4
0.00568758
0.4
0.00568758
0.4
0.00568757
0.4
0.00568757
0.4
0.00568757
0.4
0.00568757
0.4
0.00568757
0.4
0.00568757
0.4
0.00568756
0.4
0.00568756
0.4
0.00568755
0.4
0.00568754
0.4
0.00568753
0.4
0.00568751
0.4
0.00568749
0.4
0.00568746
0.4
0.00568742
0.4
0.00568738
0.4
0.00568732
0.4
0.00568725
0.4
0.00568716
0.4
0.00568706
0.4
0.00568694
0.4
0.00568681
0.400001
0.00568668
0.400001
0.00568659
0.400001
0.00568659
0.4
0.00568675
0.4
0.00568722
0.399999
0.00568823
0.399997
0.00569003
0.399995
0.00569293
0.399991
0.00569678
0.39999
0.00570059
0.399994
0.00570066
0.400018
0.400052
0.00352252
0.394402
0.00439763
0.396359
0.00498407
0.397627
0.00535657
0.398388
0.00558662
0.398981
0.00572171
0.399406
0.00579314
0.399701
0.00582377
0.399891
0.00582892
0.400008
0.00581905
0.400075
0.00580095
0.40011
0.00577902
0.400124
0.00575602
0.400126
0.00573361
0.400121
0.00571274
0.400111
0.00569388
0.400099
0.00567718
0.400087
0.00566264
0.400076
0.00565014
0.400065
0.00563949
0.400055
0.00563049
0.400046
0.00562294
0.400039
0.00561664
0.400032
0.0056114
0.400027
0.00560707
0.400022
0.00560351
0.400018
0.00560058
0.400015
0.00559818
0.400012
0.00559622
0.40001
0.00559462
0.400008
0.00559332
0.400007
0.00559227
0.400005
0.00559142
0.400004
0.00559074
0.400003
0.00559018
0.400003
0.00558974
0.400002
0.00558938
0.400002
0.0055891
0.400001
0.00558887
0.400001
0.00558869
0.400001
0.00558854
0.400001
0.00558843
0.400001
0.00558833
0.4
0.00558826
0.4
0.0055882
0.4
0.00558816
0.4
0.00558812
0.4
0.0055881
0.4
0.00558807
0.4
0.00558806
0.4
0.00558804
0.4
0.00558803
0.4
0.00558802
0.4
0.00558802
0.4
0.00558801
0.4
0.00558801
0.4
0.00558801
0.4
0.005588
0.4
0.005588
0.4
0.005588
0.4
0.005588
0.4
0.005588
0.4
0.005588
0.4
0.005588
0.4
0.005588
0.4
0.005588
0.4
0.00558799
0.4
0.00558799
0.4
0.00558799
0.4
0.00558799
0.4
0.00558799
0.4
0.00558799
0.4
0.00558798
0.4
0.00558798
0.4
0.00558797
0.4
0.00558796
0.4
0.00558795
0.4
0.00558793
0.4
0.00558791
0.4
0.00558789
0.4
0.00558785
0.4
0.00558781
0.4
0.00558775
0.4
0.00558768
0.4
0.0055876
0.4
0.00558751
0.400001
0.0055874
0.400001
0.00558729
0.400001
0.00558719
0.400001
0.00558713
0.400001
0.00558717
0.4
0.00558741
0.4
0.00558798
0.399998
0.00558913
0.399996
0.00559118
0.399992
0.00559452
0.399988
0.00559944
0.399985
0.00560574
0.399988
0.00561199
0.400012
0.400046
0.0032206
0.39315
0.00410058
0.395479
0.0047012
0.397026
0.00507944
0.398009
0.00531199
0.398748
0.00544876
0.399269
0.0055225
0.399627
0.00555588
0.399857
0.00556395
0.399999
0.00555689
0.400082
0.00554139
0.400125
0.00552179
0.400144
0.00550084
0.400147
0.00548021
0.400141
0.00546086
0.40013
0.00544328
0.400117
0.00542767
0.400103
0.00541405
0.400089
0.0054023
0.400077
0.00539228
0.400065
0.0053838
0.400055
0.00537668
0.400046
0.00537072
0.400038
0.00536577
0.400032
0.00536168
0.400026
0.0053583
0.400022
0.00535552
0.400018
0.00535324
0.400014
0.00535138
0.400012
0.00534987
0.40001
0.00534864
0.400008
0.00534764
0.400006
0.00534683
0.400005
0.00534617
0.400004
0.00534565
0.400003
0.00534522
0.400003
0.00534488
0.400002
0.00534461
0.400002
0.00534439
0.400001
0.00534422
0.400001
0.00534408
0.400001
0.00534397
0.400001
0.00534388
0.400001
0.00534381
0.4
0.00534376
0.4
0.00534371
0.4
0.00534368
0.4
0.00534365
0.4
0.00534363
0.4
0.00534362
0.4
0.0053436
0.4
0.00534359
0.4
0.00534358
0.4
0.00534358
0.4
0.00534357
0.4
0.00534357
0.4
0.00534357
0.4
0.00534357
0.4
0.00534356
0.4
0.00534356
0.4
0.00534356
0.4
0.00534356
0.4
0.00534356
0.4
0.00534356
0.4
0.00534356
0.4
0.00534356
0.4
0.00534356
0.4
0.00534356
0.4
0.00534355
0.4
0.00534355
0.4
0.00534355
0.4
0.00534355
0.4
0.00534354
0.4
0.00534354
0.4
0.00534353
0.4
0.00534352
0.4
0.00534351
0.4
0.0053435
0.4
0.00534348
0.4
0.00534345
0.4
0.00534342
0.4
0.00534338
0.4
0.00534333
0.4
0.00534326
0.4
0.00534319
0.400001
0.0053431
0.400001
0.005343
0.400001
0.00534291
0.400001
0.00534283
0.400001
0.0053428
0.400001
0.00534289
0.4
0.00534318
0.399999
0.00534385
0.399998
0.00534512
0.399995
0.00534739
0.39999
0.00535118
0.399984
0.00535716
0.399979
0.005366
0.399979
0.00537835
0.4
0.400031
0.00290095
0.392007
0.00376294
0.394617
0.00436316
0.396426
0.00474105
0.397631
0.00497304
0.398516
0.00510972
0.399132
0.0051846
0.399552
0.00521995
0.399822
0.0052304
0.399989
0.00522582
0.400086
0.0052127
0.400138
0.0051953
0.400161
0.00517633
0.400166
0.00515743
0.40016
0.00513959
0.400148
0.00512331
0.400133
0.0051088
0.400118
0.0050961
0.400102
0.00508513
0.400088
0.00507575
0.400074
0.00506781
0.400063
0.00506113
0.400053
0.00505554
0.400044
0.00505089
0.400036
0.00504703
0.40003
0.00504385
0.400025
0.00504124
0.40002
0.00503909
0.400017
0.00503734
0.400014
0.00503591
0.400011
0.00503474
0.400009
0.0050338
0.400007
0.00503303
0.400006
0.00503242
0.400005
0.00503192
0.400004
0.00503152
0.400003
0.00503119
0.400002
0.00503094
0.400002
0.00503073
0.400002
0.00503056
0.400001
0.00503043
0.400001
0.00503033
0.400001
0.00503024
0.400001
0.00503018
0.4
0.00503013
0.4
0.00503009
0.4
0.00503005
0.4
0.00503003
0.4
0.00503001
0.4
0.00502999
0.4
0.00502998
0.4
0.00502997
0.4
0.00502996
0.4
0.00502996
0.4
0.00502995
0.4
0.00502995
0.4
0.00502994
0.4
0.00502994
0.4
0.00502994
0.4
0.00502994
0.4
0.00502994
0.4
0.00502994
0.4
0.00502994
0.4
0.00502994
0.4
0.00502994
0.4
0.00502994
0.4
0.00502993
0.4
0.00502993
0.4
0.00502993
0.4
0.00502993
0.4
0.00502993
0.4
0.00502993
0.4
0.00502992
0.4
0.00502992
0.4
0.00502991
0.4
0.0050299
0.4
0.00502989
0.4
0.00502988
0.4
0.00502986
0.4
0.00502983
0.4
0.0050298
0.4
0.00502976
0.4
0.00502972
0.4
0.00502966
0.4
0.00502959
0.400001
0.00502951
0.400001
0.00502942
0.400001
0.00502934
0.400001
0.00502929
0.400001
0.00502929
0.400001
0.00502941
0.4
0.00502976
0.399999
0.00503049
0.399997
0.00503188
0.399993
0.00503434
0.399988
0.00503852
0.39998
0.00504548
0.399972
0.00505666
0.399968
0.00507444
0.399982
0.400007
0.0025921
0.390983
0.0034183
0.393791
0.00400596
0.395838
0.00437774
0.39726
0.0046061
0.398288
0.00474093
0.398997
0.00481579
0.399477
0.0048523
0.399786
0.00486459
0.399977
0.00486212
0.400089
0.00485115
0.400149
0.0048358
0.400177
0.00481871
0.400183
0.00480151
0.400177
0.00478515
0.400165
0.00477015
0.400148
0.00475674
0.400131
0.00474498
0.400114
0.00473479
0.400098
0.00472608
0.400083
0.00471868
0.40007
0.00471246
0.400059
0.00470724
0.400049
0.0047029
0.400041
0.0046993
0.400034
0.00469633
0.400028
0.00469388
0.400023
0.00469187
0.400019
0.00469023
0.400015
0.00468888
0.400012
0.00468779
0.40001
0.00468691
0.400008
0.00468619
0.400007
0.00468561
0.400005
0.00468514
0.400004
0.00468476
0.400003
0.00468446
0.400003
0.00468422
0.400002
0.00468402
0.400002
0.00468387
0.400001
0.00468374
0.400001
0.00468364
0.400001
0.00468356
0.400001
0.0046835
0.400001
0.00468345
0.4
0.00468341
0.4
0.00468338
0.4
0.00468336
0.4
0.00468334
0.4
0.00468332
0.4
0.00468331
0.4
0.0046833
0.4
0.0046833
0.4
0.00468329
0.4
0.00468329
0.4
0.00468328
0.4
0.00468328
0.4
0.00468328
0.4
0.00468328
0.4
0.00468328
0.4
0.00468327
0.4
0.00468327
0.4
0.00468327
0.4
0.00468327
0.4
0.00468327
0.4
0.00468327
0.4
0.00468327
0.4
0.00468327
0.4
0.00468327
0.4
0.00468327
0.4
0.00468326
0.4
0.00468326
0.4
0.00468326
0.4
0.00468325
0.4
0.00468325
0.4
0.00468324
0.4
0.00468323
0.4
0.00468322
0.4
0.0046832
0.4
0.00468318
0.4
0.00468315
0.4
0.00468311
0.4
0.00468307
0.4
0.00468301
0.400001
0.00468295
0.400001
0.00468288
0.400001
0.0046828
0.400001
0.00468274
0.400001
0.0046827
0.400001
0.00468272
0.400001
0.00468288
0.4
0.00468326
0.399999
0.00468405
0.399996
0.00468552
0.399992
0.00468814
0.399985
0.00469265
0.399975
0.00470044
0.399964
0.0047136
0.399955
0.00473579
0.39996
0.399976
0.00230392
0.390076
0.00308121
0.393014
0.00364633
0.395273
0.00400668
0.396899
0.00422845
0.398066
0.00435968
0.398866
0.00443335
0.399403
0.00447023
0.399749
0.00448382
0.399963
0.0044831
0.40009
0.00447404
0.400158
0.0044606
0.40019
0.0044453
0.400199
0.00442973
0.400193
0.00441482
0.400179
0.0044011
0.400162
0.00438879
0.400143
0.00437796
0.400125
0.00436858
0.400107
0.00436053
0.400091
0.00435369
0.400077
0.00434793
0.400065
0.0043431
0.400054
0.00433908
0.400045
0.00433574
0.400037
0.00433298
0.40003
0.0043307
0.400025
0.00432884
0.40002
0.00432731
0.400017
0.00432606
0.400014
0.00432505
0.400011
0.00432422
0.400009
0.00432355
0.400007
0.00432301
0.400006
0.00432257
0.400005
0.00432222
0.400004
0.00432194
0.400003
0.00432171
0.400002
0.00432153
0.400002
0.00432138
0.400002
0.00432127
0.400001
0.00432118
0.400001
0.0043211
0.400001
0.00432104
0.400001
0.004321
0.4
0.00432096
0.4
0.00432093
0.4
0.00432091
0.4
0.00432089
0.4
0.00432088
0.4
0.00432087
0.4
0.00432086
0.4
0.00432085
0.4
0.00432085
0.4
0.00432084
0.4
0.00432084
0.4
0.00432084
0.4
0.00432083
0.4
0.00432083
0.4
0.00432083
0.4
0.00432083
0.4
0.00432083
0.4
0.00432083
0.4
0.00432083
0.4
0.00432083
0.4
0.00432083
0.4
0.00432083
0.4
0.00432083
0.4
0.00432082
0.4
0.00432082
0.4
0.00432082
0.4
0.00432082
0.4
0.00432081
0.4
0.00432081
0.4
0.0043208
0.4
0.0043208
0.4
0.00432079
0.4
0.00432078
0.4
0.00432076
0.4
0.00432074
0.4
0.00432071
0.4
0.00432068
0.4
0.00432064
0.4
0.00432059
0.400001
0.00432053
0.400001
0.00432047
0.400001
0.0043204
0.400001
0.00432035
0.400001
0.00432032
0.400001
0.00432037
0.400001
0.00432055
0.4
0.00432096
0.399998
0.00432179
0.399995
0.00432331
0.39999
0.00432603
0.399982
0.00433078
0.399971
0.00433921
0.399956
0.00435388
0.39994
0.00437937
0.399934
0.399941
0.00203806
0.389279
0.00275729
0.392294
0.00329176
0.394739
0.00363586
0.396555
0.00384819
0.397854
0.00397415
0.39874
0.00404551
0.399332
0.004082
0.399712
0.00409636
0.399949
0.00409703
0.400089
0.00408965
0.400166
0.00407795
0.400202
0.00406435
0.400212
0.00405036
0.400207
0.00403688
0.400193
0.00402442
0.400174
0.0040132
0.400154
0.00400332
0.400135
0.00399473
0.400116
0.00398736
0.400099
0.0039811
0.400083
0.00397581
0.40007
0.00397137
0.400058
0.00396767
0.400048
0.0039646
0.40004
0.00396206
0.400033
0.00395996
0.400027
0.00395825
0.400022
0.00395684
0.400018
0.00395569
0.400015
0.00395475
0.400012
0.00395399
0.40001
0.00395337
0.400008
0.00395287
0.400006
0.00395246
0.400005
0.00395214
0.400004
0.00395188
0.400003
0.00395167
0.400003
0.0039515
0.400002
0.00395136
0.400002
0.00395126
0.400001
0.00395117
0.400001
0.0039511
0.400001
0.00395105
0.400001
0.003951
0.400001
0.00395097
0.4
0.00395094
0.4
0.00395092
0.4
0.00395091
0.4
0.00395089
0.4
0.00395088
0.4
0.00395087
0.4
0.00395087
0.4
0.00395086
0.4
0.00395086
0.4
0.00395086
0.4
0.00395085
0.4
0.00395085
0.4
0.00395085
0.4
0.00395085
0.4
0.00395085
0.4
0.00395085
0.4
0.00395085
0.4
0.00395085
0.4
0.00395085
0.4
0.00395085
0.4
0.00395084
0.4
0.00395084
0.4
0.00395084
0.4
0.00395084
0.4
0.00395084
0.4
0.00395084
0.4
0.00395083
0.4
0.00395083
0.4
0.00395083
0.4
0.00395082
0.4
0.00395081
0.4
0.0039508
0.4
0.00395078
0.4
0.00395076
0.4
0.00395074
0.4
0.00395071
0.4
0.00395067
0.400001
0.00395063
0.400001
0.00395057
0.400001
0.00395052
0.400001
0.00395046
0.400001
0.00395042
0.400001
0.00395041
0.400001
0.00395047
0.4
0.00395066
0.4
0.0039511
0.399998
0.00395194
0.399994
0.00395349
0.399989
0.00395625
0.39998
0.00396113
0.399966
0.00396997
0.399947
0.00398564
0.399925
0.00401328
0.399906
0.399901
0.0017928
0.388585
0.00244798
0.391639
0.00294526
0.394241
0.00326878
0.396232
0.00346904
0.397653
0.00358813
0.398621
0.00365612
0.399264
0.00369149
0.399677
0.00370612
0.399934
0.00370785
0.400087
0.00370192
0.400172
0.00369183
0.400212
0.00367983
0.400224
0.00366736
0.400219
0.00365528
0.400205
0.00364406
0.400186
0.00363393
0.400165
0.00362499
0.400143
0.00361721
0.400123
0.00361053
0.400105
0.00360483
0.400089
0.00360003
0.400075
0.00359599
0.400062
0.00359262
0.400052
0.00358982
0.400043
0.00358751
0.400035
0.0035856
0.400029
0.00358403
0.400024
0.00358275
0.400019
0.0035817
0.400016
0.00358084
0.400013
0.00358014
0.40001
0.00357958
0.400008
0.00357912
0.400007
0.00357875
0.400005
0.00357845
0.400004
0.00357821
0.400004
0.00357802
0.400003
0.00357786
0.400002
0.00357774
0.400002
0.00357764
0.400001
0.00357756
0.400001
0.0035775
0.400001
0.00357745
0.400001
0.00357741
0.400001
0.00357738
0.4
0.00357736
0.4
0.00357734
0.4
0.00357732
0.4
0.00357731
0.4
0.0035773
0.4
0.00357729
0.4
0.00357729
0.4
0.00357728
0.4
0.00357728
0.4
0.00357728
0.4
0.00357727
0.4
0.00357727
0.4
0.00357727
0.4
0.00357727
0.4
0.00357727
0.4
0.00357727
0.4
0.00357727
0.4
0.00357727
0.4
0.00357727
0.4
0.00357727
0.4
0.00357726
0.4
0.00357726
0.4
0.00357726
0.4
0.00357726
0.4
0.00357726
0.4
0.00357726
0.4
0.00357725
0.4
0.00357725
0.4
0.00357725
0.4
0.00357724
0.4
0.00357723
0.4
0.00357722
0.4
0.00357721
0.4
0.00357719
0.4
0.00357717
0.4
0.00357714
0.4
0.00357711
0.400001
0.00357707
0.400001
0.00357702
0.400001
0.00357697
0.400001
0.00357692
0.400001
0.00357689
0.400001
0.00357689
0.400001
0.00357696
0.4
0.00357716
0.399999
0.0035776
0.399997
0.00357845
0.399994
0.00357998
0.399987
0.00358273
0.399977
0.00358763
0.399961
0.00359662
0.399938
0.00361277
0.399909
0.00364143
0.399878
0.39986
0.00156528
0.387985
0.00215282
0.391052
0.0026077
0.393786
0.0029068
0.395933
0.00309257
0.397467
0.00320331
0.39851
0.00326695
0.3992
0.00330052
0.399643
0.00331495
0.39992
0.00331741
0.400085
0.00331272
0.400176
0.00330409
0.400221
0.00329362
0.400235
0.00328262
0.40023
0.00327189
0.400216
0.0032619
0.400196
0.00325287
0.400174
0.00324487
0.400151
0.0032379
0.40013
0.0032319
0.400111
0.00322679
0.400094
0.00322247
0.400079
0.00321884
0.400066
0.00321582
0.400055
0.0032133
0.400045
0.00321121
0.400037
0.00320949
0.400031
0.00320808
0.400025
0.00320692
0.400021
0.00320597
0.400017
0.0032052
0.400014
0.00320457
0.400011
0.00320406
0.400009
0.00320365
0.400007
0.00320331
0.400006
0.00320304
0.400005
0.00320282
0.400004
0.00320265
0.400003
0.00320251
0.400002
0.0032024
0.400002
0.00320231
0.400002
0.00320224
0.400001
0.00320218
0.400001
0.00320214
0.400001
0.0032021
0.400001
0.00320207
0.4
0.00320205
0.4
0.00320203
0.4
0.00320202
0.4
0.00320201
0.4
0.003202
0.4
0.00320199
0.4
0.00320198
0.4
0.00320198
0.4
0.00320198
0.4
0.00320197
0.4
0.00320197
0.4
0.00320197
0.4
0.00320197
0.4
0.00320197
0.4
0.00320197
0.4
0.00320197
0.4
0.00320197
0.4
0.00320197
0.4
0.00320197
0.4
0.00320197
0.4
0.00320197
0.4
0.00320196
0.4
0.00320196
0.4
0.00320196
0.4
0.00320196
0.4
0.00320196
0.4
0.00320196
0.4
0.00320195
0.4
0.00320195
0.4
0.00320194
0.4
0.00320194
0.4
0.00320193
0.4
0.00320191
0.4
0.0032019
0.4
0.00320188
0.4
0.00320185
0.4
0.00320182
0.400001
0.00320179
0.400001
0.00320175
0.400001
0.0032017
0.400001
0.00320166
0.400001
0.00320164
0.400001
0.00320165
0.400001
0.00320172
0.4
0.00320193
0.399999
0.00320236
0.399997
0.00320318
0.399993
0.00320467
0.399986
0.00320735
0.399974
0.00321215
0.399956
0.00322103
0.399929
0.00323713
0.399892
0.00326575
0.399849
0.399819
0.0013525
0.387471
0.0018705
0.390534
0.00227891
0.393378
0.00255025
0.395661
0.00271934
0.397298
0.00282036
0.398409
0.00287874
0.399142
0.00290989
0.399612
0.00292369
0.399906
0.00292659
0.400082
0.00292294
0.40018
0.00291565
0.400228
0.00290661
0.400244
0.00289703
0.40024
0.00288765
0.400225
0.00287887
0.400204
0.00287091
0.400182
0.00286386
0.400159
0.0028577
0.400137
0.0028524
0.400117
0.00284788
0.400099
0.00284405
0.400083
0.00284084
0.400069
0.00283815
0.400058
0.00283592
0.400048
0.00283407
0.400039
0.00283254
0.400032
0.00283128
0.400026
0.00283025
0.400022
0.00282941
0.400018
0.00282872
0.400014
0.00282816
0.400012
0.00282771
0.400009
0.00282734
0.400008
0.00282704
0.400006
0.00282681
0.400005
0.00282661
0.400004
0.00282646
0.400003
0.00282633
0.400003
0.00282623
0.400002
0.00282615
0.400002
0.00282609
0.400001
0.00282604
0.400001
0.002826
0.400001
0.00282596
0.400001
0.00282594
0.400001
0.00282592
0.4
0.0028259
0.4
0.00282589
0.4
0.00282588
0.4
0.00282587
0.4
0.00282587
0.4
0.00282586
0.4
0.00282586
0.4
0.00282586
0.4
0.00282585
0.4
0.00282585
0.4
0.00282585
0.4
0.00282585
0.4
0.00282585
0.4
0.00282585
0.4
0.00282585
0.4
0.00282585
0.4
0.00282585
0.4
0.00282585
0.4
0.00282585
0.4
0.00282584
0.4
0.00282584
0.4
0.00282584
0.4
0.00282584
0.4
0.00282584
0.4
0.00282584
0.4
0.00282584
0.4
0.00282583
0.4
0.00282583
0.4
0.00282583
0.4
0.00282582
0.4
0.00282581
0.4
0.0028258
0.4
0.00282578
0.4
0.00282577
0.4
0.00282574
0.4
0.00282572
0.400001
0.00282569
0.400001
0.00282565
0.400001
0.00282561
0.400001
0.00282558
0.400001
0.00282556
0.400001
0.00282558
0.400001
0.00282566
0.4
0.00282586
0.399999
0.00282627
0.399996
0.00282705
0.399992
0.00282846
0.399984
0.002831
0.399972
0.00283557
0.399952
0.00284411
0.399921
0.00285964
0.399877
0.00288726
0.399822
0.399779
0.00115169
0.387038
0.00159943
0.390086
0.00195821
0.393019
0.00219889
0.395421
0.00234938
0.397148
0.00243947
0.398319
0.00249175
0.39909
0.00251992
0.399584
0.0025327
0.399893
0.00253578
0.400079
0.002533
0.400183
0.00252692
0.400234
0.00251925
0.400251
0.00251104
0.400248
0.00250297
0.400233
0.00249539
0.400212
0.00248851
0.400188
0.00248239
0.400165
0.00247705
0.400142
0.00247245
0.400121
0.00246852
0.400103
0.0024652
0.400086
0.0024624
0.400072
0.00246006
0.40006
0.00245812
0.40005
0.00245651
0.400041
0.00245517
0.400034
0.00245408
0.400028
0.00245318
0.400022
0.00245245
0.400018
0.00245185
0.400015
0.00245136
0.400012
0.00245096
0.40001
0.00245064
0.400008
0.00245038
0.400006
0.00245017
0.400005
0.00245
0.400004
0.00244987
0.400003
0.00244976
0.400003
0.00244967
0.400002
0.0024496
0.400002
0.00244955
0.400001
0.0024495
0.400001
0.00244947
0.400001
0.00244944
0.400001
0.00244942
0.400001
0.0024494
0.4
0.00244938
0.4
0.00244937
0.4
0.00244936
0.4
0.00244936
0.4
0.00244935
0.4
0.00244935
0.4
0.00244934
0.4
0.00244934
0.4
0.00244934
0.4
0.00244934
0.4
0.00244934
0.4
0.00244934
0.4
0.00244934
0.4
0.00244933
0.4
0.00244933
0.4
0.00244933
0.4
0.00244933
0.4
0.00244933
0.4
0.00244933
0.4
0.00244933
0.4
0.00244933
0.4
0.00244933
0.4
0.00244933
0.4
0.00244933
0.4
0.00244933
0.4
0.00244933
0.4
0.00244932
0.4
0.00244932
0.4
0.00244932
0.4
0.00244931
0.4
0.0024493
0.4
0.00244929
0.4
0.00244928
0.4
0.00244926
0.4
0.00244925
0.4
0.00244922
0.400001
0.0024492
0.400001
0.00244916
0.400001
0.00244913
0.400001
0.00244911
0.400001
0.00244909
0.400001
0.00244911
0.400001
0.00244919
0.4
0.00244938
0.399999
0.00244976
0.399996
0.00245048
0.399991
0.00245178
0.399983
0.00245412
0.399969
0.00245836
0.399947
0.00246629
0.399913
0.00248079
0.399862
0.00250654
0.399796
0.399742
0.000960419
0.386679
0.0013379
0.389708
0.00164468
0.392713
0.00185226
0.395213
0.00198245
0.397018
0.00206053
0.398241
0.00210602
0.399044
0.00213071
0.399559
0.00214212
0.399882
0.00214514
0.400076
0.00214306
0.400185
0.00213811
0.400239
0.00213173
0.400258
0.00212486
0.400255
0.00211807
0.40024
0.00211168
0.400218
0.00210586
0.400194
0.00210069
0.40017
0.00209617
0.400146
0.00209227
0.400125
0.00208894
0.400106
0.00208612
0.400089
0.00208374
0.400074
0.00208176
0.400062
0.00208011
0.400051
0.00207874
0.400042
0.0020776
0.400035
0.00207667
0.400028
0.00207591
0.400023
0.00207529
0.400019
0.00207478
0.400015
0.00207436
0.400013
0.00207402
0.40001
0.00207375
0.400008
0.00207353
0.400007
0.00207335
0.400005
0.0020732
0.400004
0.00207309
0.400003
0.002073
0.400003
0.00207292
0.400002
0.00207286
0.400002
0.00207281
0.400001
0.00207278
0.400001
0.00207275
0.400001
0.00207272
0.400001
0.0020727
0.400001
0.00207269
0.4
0.00207268
0.4
0.00207267
0.4
0.00207266
0.4
0.00207265
0.4
0.00207265
0.4
0.00207265
0.4
0.00207264
0.4
0.00207264
0.4
0.00207264
0.4
0.00207264
0.4
0.00207264
0.4
0.00207264
0.4
0.00207264
0.4
0.00207263
0.4
0.00207263
0.4
0.00207263
0.4
0.00207263
0.4
0.00207263
0.4
0.00207263
0.4
0.00207263
0.4
0.00207263
0.4
0.00207263
0.4
0.00207263
0.4
0.00207263
0.4
0.00207263
0.4
0.00207263
0.4
0.00207262
0.4
0.00207262
0.4
0.00207262
0.4
0.00207261
0.4
0.00207261
0.4
0.0020726
0.4
0.00207259
0.4
0.00207257
0.4
0.00207256
0.400001
0.00207254
0.400001
0.00207252
0.400001
0.00207249
0.400001
0.00207247
0.400001
0.00207244
0.400001
0.00207243
0.400001
0.00207245
0.400001
0.00207253
0.4
0.0020727
0.399999
0.00207304
0.399996
0.00207368
0.399991
0.00207484
0.399982
0.00207692
0.399967
0.00208071
0.399944
0.00208783
0.399906
0.00210087
0.399849
0.00212398
0.399773
0.399709
0.000776629
0.386391
0.00108428
0.389401
0.00133726
0.39246
0.00150975
0.39504
0.00161821
0.396909
0.00168337
0.398176
0.00172143
0.399006
0.00174222
0.399538
0.00175197
0.399872
0.00175472
0.400073
0.00175322
0.400186
0.00174929
0.400243
0.00174415
0.400263
0.00173858
0.400261
0.00173305
0.400246
0.00172784
0.400224
0.00172309
0.400199
0.00171886
0.400174
0.00171516
0.40015
0.00171196
0.400128
0.00170923
0.400109
0.00170692
0.400091
0.00170497
0.400076
0.00170334
0.400063
0.00170199
0.400053
0.00170086
0.400043
0.00169993
0.400036
0.00169917
0.400029
0.00169854
0.400024
0.00169803
0.400019
0.00169761
0.400016
0.00169727
0.400013
0.00169699
0.40001
0.00169676
0.400008
0.00169658
0.400007
0.00169643
0.400005
0.00169632
0.400004
0.00169622
0.400004
0.00169614
0.400003
0.00169608
0.400002
0.00169603
0.400002
0.00169599
0.400001
0.00169596
0.400001
0.00169594
0.400001
0.00169592
0.400001
0.0016959
0.400001
0.00169589
0.4
0.00169588
0.4
0.00169587
0.4
0.00169587
0.4
0.00169586
0.4
0.00169586
0.4
0.00169585
0.4
0.00169585
0.4
0.00169585
0.4
0.00169585
0.4
0.00169585
0.4
0.00169585
0.4
0.00169585
0.4
0.00169585
0.4
0.00169585
0.4
0.00169585
0.4
0.00169584
0.4
0.00169584
0.4
0.00169584
0.4
0.00169584
0.4
0.00169584
0.4
0.00169584
0.4
0.00169584
0.4
0.00169584
0.4
0.00169584
0.4
0.00169584
0.4
0.00169584
0.4
0.00169584
0.4
0.00169583
0.4
0.00169583
0.4
0.00169583
0.4
0.00169582
0.4
0.00169582
0.4
0.00169581
0.4
0.0016958
0.4
0.00169578
0.400001
0.00169577
0.400001
0.00169575
0.400001
0.00169573
0.400001
0.00169571
0.400001
0.00169569
0.400001
0.00169568
0.400001
0.0016957
0.400001
0.00169577
0.4
0.00169591
0.399998
0.00169621
0.399995
0.00169675
0.39999
0.00169774
0.399981
0.00169952
0.399965
0.00170277
0.39994
0.00170888
0.399899
0.00172007
0.399838
0.00173989
0.399753
0.39968
0.000598558
0.38617
0.000836964
0.389162
0.00103488
0.392262
0.00117065
0.394905
0.00125623
0.396824
0.00130769
0.398125
0.00133783
0.398976
0.00135437
0.399522
0.00136221
0.399864
0.00136453
0.400071
0.00136348
0.400188
0.0013605
0.400246
0.00135655
0.400267
0.00135225
0.400265
0.00134797
0.40025
0.00134393
0.400228
0.00134024
0.400203
0.00133695
0.400177
0.00133407
0.400153
0.00133158
0.400131
0.00132946
0.400111
0.00132765
0.400093
0.00132613
0.400078
0.00132486
0.400065
0.00132381
0.400054
0.00132293
0.400044
0.0013222
0.400036
0.00132161
0.40003
0.00132112
0.400024
0.00132072
0.40002
0.00132039
0.400016
0.00132012
0.400013
0.00131991
0.400011
0.00131973
0.400009
0.00131959
0.400007
0.00131947
0.400006
0.00131938
0.400004
0.00131931
0.400004
0.00131925
0.400003
0.0013192
0.400002
0.00131916
0.400002
0.00131913
0.400001
0.0013191
0.400001
0.00131909
0.400001
0.00131907
0.400001
0.00131906
0.400001
0.00131905
0.4
0.00131904
0.4