/*--------------------------------*- C++ -*----------------------------------*\
| =========                 |                                                 |
| \\      /  F ield         | OpenFOAM: The Open Source CFD Toolbox           |
|  \\    /   O peration     | Version:  v1906                                 |
|   \\  /    A nd           | Web:      www.OpenFOAM.com                      |
|    \\/     M anipulation  |                                                 |
\*---------------------------------------------------------------------------*/
FoamFile
{
    version     2.0;
    format      ascii;
    class       surfaceScalarField;
    location    "2";
    object      phiB;
}
// * * * * * * * * * * * * * * * * * * * * * * * * * * * * * * * * * * * * * //

dimensions      [1 2 -2 0 0 -1 0];
oriented        oriented;


internalField   nonuniform List<scalar> 
7860
(
0.00210744
0.799211
0.00248869
0.799619
0.00260002
0.799889
0.00261697
0.799983
0.00260027
0.800017
0.00257096
0.800029
0.00254514
0.800026
0.00252273
0.800022
0.00250646
0.800016
0.00249415
0.800012
0.00248574
0.800008
0.00247973
0.800006
0.00247573
0.800004
0.00247295
0.800003
0.00247113
0.800002
0.00246989
0.800001
0.00246908
0.800001
0.00246854
0.800001
0.00246819
0.8
0.00246796
0.8
0.00246781
0.8
0.00246771
0.8
0.00246765
0.8
0.00246761
0.8
0.00246758
0.8
0.00246756
0.8
0.00246755
0.8
0.00246754
0.8
0.00246754
0.8
0.00246754
0.8
0.00246753
0.8
0.00246753
0.8
0.00246753
0.8
0.00246753
0.8
0.00246753
0.8
0.00246753
0.8
0.00246753
0.8
0.00246753
0.8
0.00246753
0.8
0.00246753
0.8
0.00246753
0.8
0.00246753
0.8
0.00246753
0.8
0.00246753
0.8
0.00246753
0.8
0.00246753
0.8
0.00246753
0.8
0.00246753
0.8
0.00246753
0.8
0.00246753
0.8
0.00246753
0.8
0.00246753
0.8
0.00246753
0.8
0.00246753
0.8
0.00246753
0.8
0.00246753
0.8
0.00246753
0.8
0.00246753
0.8
0.00246753
0.8
0.00246753
0.8
0.00246753
0.8
0.00246753
0.8
0.00246753
0.8
0.00246753
0.8
0.00246753
0.8
0.00246753
0.8
0.00246753
0.8
0.00246753
0.8
0.00246753
0.8
0.00246753
0.8
0.00246753
0.8
0.00246753
0.8
0.00246753
0.8
0.00246753
0.8
0.00246753
0.8
0.00246753
0.8
0.00246753
0.8
0.00246753
0.8
0.00246753
0.8
0.00246753
0.8
0.00246753
0.8
0.00246753
0.8
0.00246753
0.8
0.00246753
0.8
0.00246753
0.8
0.00246753
0.8
0.00246752
0.8
0.00246752
0.8
0.00246751
0.8
0.00246749
0.8
0.00246746
0.8
0.00246742
0.8
0.00246736
0.8
0.00246727
0.8
0.00246715
0.8
0.00246709
0.8
0.00246709
0.8
0.00246765
0.799999
0.00246595
0.800002
0.800005
0.00339469
0.798023
0.00393889
0.799075
0.0041032
0.799724
0.00413703
0.799949
0.0041153
0.800038
0.00407901
0.800066
0.00404379
0.800061
0.00401446
0.800052
0.00399214
0.800039
0.00397576
0.800029
0.00396418
0.80002
0.0039561
0.800014
0.00395059
0.80001
0.00394683
0.800007
0.00394432
0.800004
0.00394264
0.800003
0.00394152
0.800002
0.00394078
0.800001
0.0039403
0.800001
0.00393998
0.800001
0.00393977
0.8
0.00393964
0.8
0.00393955
0.8
0.0039395
0.8
0.00393946
0.8
0.00393943
0.8
0.00393942
0.8
0.00393941
0.8
0.0039394
0.8
0.0039394
0.8
0.0039394
0.8
0.0039394
0.8
0.00393939
0.8
0.00393939
0.8
0.00393939
0.8
0.00393939
0.8
0.00393939
0.8
0.00393939
0.8
0.00393939
0.8
0.00393939
0.8
0.00393939
0.8
0.00393939
0.8
0.00393939
0.8
0.00393939
0.8
0.00393939
0.8
0.00393939
0.8
0.00393939
0.8
0.00393939
0.8
0.00393939
0.8
0.00393939
0.8
0.00393939
0.8
0.00393939
0.8
0.00393939
0.8
0.00393939
0.8
0.00393939
0.8
0.00393939
0.8
0.00393939
0.8
0.00393939
0.8
0.00393939
0.8
0.00393939
0.8
0.00393939
0.8
0.00393939
0.8
0.00393939
0.8
0.00393939
0.8
0.00393939
0.8
0.00393939
0.8
0.00393939
0.8
0.00393939
0.8
0.00393939
0.8
0.00393939
0.8
0.00393939
0.8
0.00393939
0.8
0.00393939
0.8
0.00393939
0.8
0.00393939
0.8
0.00393939
0.8
0.00393939
0.8
0.00393939
0.8
0.00393939
0.8
0.00393939
0.8
0.00393939
0.8
0.00393939
0.8
0.00393939
0.8
0.00393939
0.8
0.00393939
0.8
0.00393939
0.8
0.00393938
0.8
0.00393937
0.8
0.00393936
0.8
0.00393934
0.8
0.0039393
0.8
0.00393924
0.8
0.00393916
0.8
0.00393904
0.8
0.00393891
0.8
0.00393888
0.8
0.00393901
0.8
0.00394004
0.799998
0.00393826
0.800003
0.800011
0.00367571
0.79678
0.0042227
0.798528
0.00439616
0.799551
0.00444026
0.799905
0.00442122
0.800057
0.00438997
0.800097
0.00435619
0.800095
0.00432909
0.800079
0.00430746
0.80006
0.00429202
0.800044
0.00428076
0.800031
0.00427307
0.800022
0.00426769
0.800015
0.00426409
0.80001
0.00426163
0.800007
0.00426002
0.800005
0.00425892
0.800003
0.00425821
0.800002
0.00425774
0.800001
0.00425743
0.800001
0.00425723
0.800001
0.0042571
0.8
0.00425701
0.8
0.00425695
0.8
0.00425692
0.8
0.00425689
0.8
0.00425688
0.8
0.00425687
0.8
0.00425686
0.8
0.00425686
0.8
0.00425686
0.8
0.00425686
0.8
0.00425685
0.8
0.00425685
0.8
0.00425685
0.8
0.00425685
0.8
0.00425685
0.8
0.00425685
0.8
0.00425685
0.8
0.00425685
0.8
0.00425685
0.8
0.00425685
0.8
0.00425685
0.8
0.00425685
0.8
0.00425685
0.8
0.00425685
0.8
0.00425685
0.8
0.00425685
0.8
0.00425685
0.8
0.00425685
0.8
0.00425685
0.8
0.00425685
0.8
0.00425685
0.8
0.00425685
0.8
0.00425685
0.8
0.00425685
0.8
0.00425685
0.8
0.00425685
0.8
0.00425685
0.8
0.00425685
0.8
0.00425685
0.8
0.00425685
0.8
0.00425685
0.8
0.00425685
0.8
0.00425685
0.8
0.00425685
0.8
0.00425685
0.8
0.00425685
0.8
0.00425685
0.8
0.00425685
0.8
0.00425685
0.8
0.00425685
0.8
0.00425685
0.8
0.00425685
0.8
0.00425685
0.8
0.00425685
0.8
0.00425685
0.8
0.00425685
0.8
0.00425685
0.8
0.00425685
0.8
0.00425685
0.8
0.00425685
0.8
0.00425685
0.8
0.00425685
0.8
0.00425685
0.8
0.00425685
0.8
0.00425684
0.8
0.00425684
0.8
0.00425682
0.8
0.0042568
0.8
0.00425677
0.8
0.00425671
0.8
0.00425663
0.8
0.00425653
0.8
0.00425643
0.8
0.00425646
0.8
0.00425678
0.8
0.00425817
0.799997
0.00425825
0.800003
0.800013
0.00358744
0.795535
0.00412439
0.797991
0.00430614
0.799369
0.00435723
0.799854
0.0043421
0.800073
0.00431504
0.800124
0.00428337
0.800126
0.00425829
0.800104
0.00423769
0.800081
0.00422316
0.800059
0.00421237
0.800042
0.00420508
0.800029
0.0041999
0.80002
0.00419648
0.800014
0.00419411
0.800009
0.00419256
0.800006
0.00419151
0.800004
0.00419083
0.800003
0.00419037
0.800002
0.00419007
0.800001
0.00418987
0.800001
0.00418975
0.8
0.00418966
0.8
0.00418961
0.8
0.00418958
0.8
0.00418955
0.8
0.00418954
0.8
0.00418953
0.8
0.00418952
0.8
0.00418952
0.8
0.00418952
0.8
0.00418952
0.8
0.00418951
0.8
0.00418951
0.8
0.00418951
0.8
0.00418951
0.8
0.00418951
0.8
0.00418951
0.8
0.00418951
0.8
0.00418951
0.8
0.00418951
0.8
0.00418951
0.8
0.00418951
0.8
0.00418951
0.8
0.00418951
0.8
0.00418951
0.8
0.00418951
0.8
0.00418951
0.8
0.00418951
0.8
0.00418951
0.8
0.00418951
0.8
0.00418951
0.8
0.00418951
0.8
0.00418951
0.8
0.00418951
0.8
0.00418951
0.8
0.00418951
0.8
0.00418951
0.8
0.00418951
0.8
0.00418951
0.8
0.00418951
0.8
0.00418951
0.8
0.00418951
0.8
0.00418951
0.8
0.00418951
0.8
0.00418951
0.8
0.00418951
0.8
0.00418951
0.8
0.00418951
0.8
0.00418951
0.8
0.00418951
0.8
0.00418951
0.8
0.00418951
0.8
0.00418951
0.8
0.00418951
0.8
0.00418951
0.8
0.00418951
0.8
0.00418951
0.8
0.00418951
0.8
0.00418951
0.8
0.00418951
0.8
0.00418951
0.8
0.00418951
0.8
0.00418951
0.8
0.00418951
0.8
0.00418951
0.8
0.0041895
0.8
0.0041895
0.8
0.00418948
0.8
0.00418946
0.8
0.00418943
0.8
0.00418938
0.8
0.0041893
0.8
0.00418922
0.8
0.00418915
0.8
0.00418925
0.8
0.00418976
0.799999
0.00419154
0.799995
0.00419412
0.800001
0.80001
0.00338077
0.794322
0.00390326
0.797468
0.00408994
0.799182
0.00414611
0.799798
0.00413485
0.800084
0.00411153
0.800147
0.00408211
0.800156
0.00405897
0.800127
0.0040395
0.8001
0.00402588
0.800072
0.00401562
0.800052
0.00400874
0.800036
0.00400381
0.800025
0.00400056
0.800017
0.0039983
0.800011
0.00399683
0.800008
0.00399582
0.800005
0.00399517
0.800003
0.00399473
0.800002
0.00399444
0.800001
0.00399425
0.800001
0.00399413
0.800001
0.00399405
0.8
0.003994
0.8
0.00399397
0.8
0.00399395
0.8
0.00399393
0.8
0.00399392
0.8
0.00399392
0.8
0.00399391
0.8
0.00399391
0.8
0.00399391
0.8
0.00399391
0.8
0.00399391
0.8
0.00399391
0.8
0.00399391
0.8
0.00399391
0.8
0.00399391
0.8
0.00399391
0.8
0.00399391
0.8
0.00399391
0.8
0.00399391
0.8
0.00399391
0.8
0.00399391
0.8
0.00399391
0.8
0.00399391
0.8
0.00399391
0.8
0.00399391
0.8
0.00399391
0.8
0.00399391
0.8
0.00399391
0.8
0.00399391
0.8
0.00399391
0.8
0.00399391
0.8
0.00399391
0.8
0.00399391
0.8
0.00399391
0.8
0.00399391
0.8
0.00399391
0.8
0.00399391
0.8
0.00399391
0.8
0.00399391
0.8
0.00399391
0.8
0.00399391
0.8
0.00399391
0.8
0.00399391
0.8
0.00399391
0.8
0.00399391
0.8
0.00399391
0.8
0.00399391
0.8
0.00399391
0.8
0.00399391
0.8
0.00399391
0.8
0.00399391
0.8
0.00399391
0.8
0.00399391
0.8
0.00399391
0.8
0.00399391
0.8
0.00399391
0.8
0.00399391
0.8
0.00399391
0.8
0.00399391
0.8
0.00399391
0.8
0.0039939
0.8
0.0039939
0.8
0.0039939
0.8
0.0039939
0.8
0.00399389
0.8
0.00399388
0.8
0.00399386
0.8
0.00399383
0.8
0.00399378
0.8
0.00399371
0.8
0.00399364
0.8
0.00399361
0.8
0.00399376
0.8
0.00399446
0.799998
0.00399663
0.799993
0.00400167
0.799996
0.800002
0.00313965
0.79316
0.0036451
0.796963
0.00383317
0.798994
0.00389293
0.799738
0.00388514
0.800092
0.00386521
0.800167
0.00383804
0.800183
0.00381676
0.800148
0.00379847
0.800119
0.00378577
0.800085
0.00377607
0.800062
0.00376961
0.800042
0.00376492
0.80003
0.00376187
0.80002
0.00375971
0.800014
0.00375832
0.800009
0.00375736
0.800006
0.00375675
0.800004
0.00375632
0.800003
0.00375606
0.800002
0.00375588
0.800001
0.00375576
0.800001
0.00375568
0.8
0.00375563
0.8
0.0037556
0.8
0.00375558
0.8
0.00375557
0.8
0.00375556
0.8
0.00375555
0.8
0.00375555
0.8
0.00375555
0.8
0.00375555
0.8
0.00375555
0.8
0.00375555
0.8
0.00375554
0.8
0.00375554
0.8
0.00375554
0.8
0.00375554
0.8
0.00375554
0.8
0.00375554
0.8
0.00375554
0.8
0.00375554
0.8
0.00375554
0.8
0.00375554
0.8
0.00375554
0.8
0.00375554
0.8
0.00375554
0.8
0.00375554
0.8
0.00375554
0.8
0.00375554
0.8
0.00375554
0.8
0.00375554
0.8
0.00375554
0.8
0.00375554
0.8
0.00375554
0.8
0.00375554
0.8
0.00375554
0.8
0.00375554
0.8
0.00375554
0.8
0.00375554
0.8
0.00375554
0.8
0.00375554
0.8
0.00375554
0.8
0.00375554
0.8
0.00375554
0.8
0.00375554
0.8
0.00375554
0.8
0.00375554
0.8
0.00375554
0.8
0.00375554
0.8
0.00375554
0.8
0.00375554
0.8
0.00375554
0.8
0.00375554
0.8
0.00375554
0.8
0.00375554
0.8
0.00375554
0.8
0.00375554
0.8
0.00375554
0.8
0.00375554
0.8
0.00375554
0.8
0.00375554
0.8
0.00375554
0.8
0.00375554
0.8
0.00375554
0.8
0.00375554
0.8
0.00375553
0.8
0.00375553
0.8
0.00375552
0.8
0.0037555
0.8
0.00375547
0.8
0.00375542
0.8
0.00375537
0.8
0.00375531
0.800001
0.0037553
0.8
0.00375551
0.8
0.00375638
0.799997
0.0037589
0.799991
0.00376605
0.799989
0.799991
0.00289213
0.792062
0.0033781
0.796477
0.00356438
0.798808
0.00362634
0.799676
0.00362152
0.800096
0.00360466
0.800184
0.00357968
0.800208
0.00356022
0.800168
0.00354313
0.800136
0.00353133
0.800097
0.00352222
0.800071
0.00351618
0.800048
0.00351177
0.800034
0.0035089
0.800023
0.00350687
0.800016
0.00350556
0.80001
0.00350465
0.800007
0.00350407
0.800005
0.00350367
0.800003
0.00350342
0.800002
0.00350324
0.800001
0.00350314
0.800001
0.00350306
0.800001
0.00350302
0.8
0.00350298
0.8
0.00350297
0.8
0.00350295
0.8
0.00350294
0.8
0.00350294
0.8
0.00350294
0.8
0.00350293
0.8
0.00350293
0.8
0.00350293
0.8
0.00350293
0.8
0.00350293
0.8
0.00350293
0.8
0.00350293
0.8
0.00350293
0.8
0.00350293
0.8
0.00350293
0.8
0.00350293
0.8
0.00350293
0.8
0.00350293
0.8
0.00350293
0.8
0.00350293
0.8
0.00350293
0.8
0.00350293
0.8
0.00350293
0.8
0.00350293
0.8
0.00350293
0.8
0.00350293
0.8
0.00350293
0.8
0.00350293
0.8
0.00350293
0.8
0.00350293
0.8
0.00350293
0.8
0.00350293
0.8
0.00350293
0.8
0.00350293
0.8
0.00350293
0.8
0.00350293
0.8
0.00350293
0.8
0.00350293
0.8
0.00350293
0.8
0.00350293
0.8
0.00350293
0.8
0.00350293
0.8
0.00350293
0.8
0.00350293
0.8
0.00350293
0.8
0.00350293
0.8
0.00350293
0.8
0.00350293
0.8
0.00350293
0.8
0.00350293
0.8
0.00350293
0.8
0.00350293
0.8
0.00350293
0.8
0.00350293
0.8
0.00350293
0.8
0.00350293
0.8
0.00350293
0.8
0.00350293
0.8
0.00350293
0.8
0.00350293
0.8
0.00350293
0.8
0.00350292
0.8
0.00350291
0.8
0.0035029
0.8
0.00350289
0.8
0.00350286
0.8
0.00350282
0.8
0.00350277
0.8
0.00350272
0.800001
0.00350274
0.8
0.003503
0.799999
0.00350402
0.799996
0.00350683
0.799988
0.00351564
0.79998
0.799976
0.00264744
0.791036
0.00311128
0.796013
0.00329303
0.798626
0.00335586
0.799613
0.00335352
0.800099
0.00333941
0.800198
0.00331657
0.800231
0.00329886
0.800185
0.00328298
0.800152
0.00327209
0.800108
0.00326358
0.80008
0.00325797
0.800054
0.00325384
0.800038
0.00325116
0.800025
0.00324926
0.800018
0.00324803
0.800011
0.00324718
0.800008
0.00324664
0.800005
0.00324626
0.800003
0.00324602
0.800002
0.00324586
0.800001
0.00324576
0.800001
0.00324569
0.800001
0.00324565
0.8
0.00324562
0.8
0.0032456
0.8
0.00324559
0.8
0.00324558
0.8
0.00324557
0.8
0.00324557
0.8
0.00324557
0.8
0.00324557
0.8
0.00324557
0.8
0.00324557
0.8
0.00324557
0.8
0.00324557
0.8
0.00324556
0.8
0.00324557
0.8
0.00324556
0.8
0.00324557
0.8
0.00324556
0.8
0.00324557
0.8
0.00324556
0.8
0.00324557
0.8
0.00324556
0.8
0.00324557
0.8
0.00324556
0.8
0.00324557
0.8
0.00324556
0.8
0.00324557
0.8
0.00324556
0.8
0.00324557
0.8
0.00324556
0.8
0.00324557
0.8
0.00324556
0.8
0.00324557
0.8
0.00324556
0.8
0.00324557
0.8
0.00324556
0.8
0.00324557
0.8
0.00324556
0.8
0.00324557
0.8
0.00324556
0.8
0.00324557
0.8
0.00324556
0.8
0.00324557
0.8
0.00324556
0.8
0.00324557
0.8
0.00324556
0.8
0.00324557
0.8
0.00324556
0.8
0.00324557
0.8
0.00324556
0.8
0.00324557
0.8
0.00324556
0.8
0.00324557
0.8
0.00324556
0.8
0.00324557
0.8
0.00324556
0.8
0.00324557
0.8
0.00324556
0.8
0.00324556
0.8
0.00324556
0.8
0.00324556
0.8
0.00324556
0.8
0.00324556
0.8
0.00324556
0.8
0.00324555
0.8
0.00324554
0.8
0.00324552
0.8
0.0032455
0.8
0.00324546
0.8
0.00324542
0.800001
0.00324538
0.800001
0.00324542
0.8
0.00324572
0.799999
0.00324687
0.799995
0.00324989
0.799985
0.00325993
0.79997
0.799958
0.00240844
0.790088
0.00284732
0.795574
0.00302218
0.798451
0.00308464
0.799551
0.00308432
0.800099
0.00307264
0.80021
0.00305187
0.800252
0.00303585
0.800202
0.0030212
0.800166
0.00301121
0.800118
0.00300332
0.800088
0.00299814
0.800059
0.0029943
0.800042
0.00299183
0.800028
0.00299005
0.800019
0.00298892
0.800013
0.00298812
0.800009
0.00298762
0.800006
0.00298727
0.800004
0.00298705
0.800002
0.00298689
0.800002
0.0029868
0.800001
0.00298673
0.800001
0.00298669
0.8
0.00298667
0.8
0.00298665
0.8
0.00298664
0.8
0.00298663
0.8
0.00298662
0.8
0.00298662
0.8
0.00298662
0.8
0.00298662
0.8
0.00298662
0.8
0.00298662
0.8
0.00298662
0.8
0.00298662
0.8
0.00298662
0.8
0.00298662
0.8
0.00298662
0.8
0.00298662
0.8
0.00298662
0.8
0.00298662
0.8
0.00298662
0.8
0.00298662
0.8
0.00298662
0.8
0.00298662
0.8
0.00298662
0.8
0.00298662
0.8
0.00298662
0.8
0.00298662
0.8
0.00298662
0.8
0.00298662
0.8
0.00298662
0.8
0.00298662
0.8
0.00298662
0.8
0.00298662
0.8
0.00298662
0.8
0.00298662
0.8
0.00298662
0.8
0.00298662
0.8
0.00298662
0.8
0.00298662
0.8
0.00298662
0.8
0.00298662
0.8
0.00298662
0.8
0.00298662
0.8
0.00298662
0.8
0.00298662
0.8
0.00298662
0.8
0.00298662
0.8
0.00298662
0.8
0.00298662
0.8
0.00298662
0.8
0.00298662
0.8
0.00298662
0.8
0.00298662
0.8
0.00298662
0.8
0.00298662
0.8
0.00298662
0.8
0.00298662
0.8
0.00298662
0.8
0.00298662
0.8
0.00298662
0.8
0.00298662
0.8
0.00298661
0.8
0.00298661
0.8
0.00298661
0.8
0.0029866
0.8
0.00298659
0.8
0.00298658
0.8
0.00298656
0.8
0.00298652
0.8
0.00298648
0.800001
0.00298646
0.800001
0.00298652
0.8
0.00298684
0.799999
0.00298808
0.799994
0.00299125
0.799982
0.00300209
0.799959
0.799939
0.00217579
0.789221
0.00258685
0.795163
0.00275279
0.798286
0.0028137
0.79949
0.00281496
0.800098
0.0028054
0.800219
0.00278665
0.80027
0.00277227
0.800216
0.00275885
0.80018
0.00274976
0.800127
0.0027425
0.800095
0.00273776
0.800064
0.00273422
0.800046
0.00273195
0.80003
0.00273031
0.800021
0.00272927
0.800014
0.00272853
0.800009
0.00272807
0.800006
0.00272774
0.800004
0.00272754
0.800003
0.0027274
0.800002
0.00272731
0.800001
0.00272725
0.800001
0.00272721
0.8
0.00272719
0.8
0.00272717
0.8
0.00272716
0.8
0.00272715
0.8
0.00272715
0.8
0.00272715
0.8
0.00272714
0.8
0.00272714
0.8
0.00272714
0.8
0.00272714
0.8
0.00272714
0.8
0.00272714
0.8
0.00272714
0.8
0.00272714
0.8
0.00272714
0.8
0.00272714
0.8
0.00272714
0.8
0.00272714
0.8
0.00272714
0.8
0.00272714
0.8
0.00272714
0.8
0.00272714
0.8
0.00272714
0.8
0.00272714
0.8
0.00272714
0.8
0.00272714
0.8
0.00272714
0.8
0.00272714
0.8
0.00272714
0.8
0.00272714
0.8
0.00272714
0.8
0.00272714
0.8
0.00272714
0.8
0.00272714
0.8
0.00272714
0.8
0.00272714
0.8
0.00272714
0.8
0.00272714
0.8
0.00272714
0.8
0.00272714
0.8
0.00272714
0.8
0.00272714
0.8
0.00272714
0.8
0.00272714
0.8
0.00272714
0.8
0.00272714
0.8
0.00272714
0.8
0.00272714
0.8
0.00272714
0.8
0.00272714
0.8
0.00272714
0.8
0.00272714
0.8
0.00272714
0.8
0.00272714
0.8
0.00272714
0.8
0.00272714
0.8
0.00272714
0.8
0.00272714
0.8
0.00272714
0.8
0.00272714
0.8
0.00272714
0.8
0.00272714
0.8
0.00272713
0.8
0.00272713
0.8
0.00272712
0.8
0.00272711
0.8
0.00272708
0.8
0.00272705
0.8
0.00272702
0.800001
0.002727
0.800001
0.00272708
0.8
0.00272742
0.799998
0.00272872
0.799993
0.00273195
0.799978
0.00274319
0.799948
0.799919
0.00194933
0.788438
0.00232981
0.794782
0.00248504
0.79813
0.00254334
0.799432
0.00254578
0.800095
0.00253804
0.800227
0.00252127
0.800287
0.00250845
0.800229
0.00249629
0.800192
0.00248808
0.800135
0.00248147
0.800101
0.00247718
0.800068
0.00247395
0.800049
0.00247188
0.800032
0.00247039
0.800022
0.00246944
0.800015
0.00246876
0.80001
0.00246834
0.800006
0.00246804
0.800004
0.00246785
0.800003
0.00246772
0.800002
0.00246764
0.800001
0.00246759
0.800001
0.00246755
0.800001
0.00246753
0.8
0.00246752
0.8
0.0024675
0.8
0.0024675
0.8
0.00246749
0.8
0.00246749
0.8
0.00246749
0.8
0.00246749
0.8
0.00246749
0.8
0.00246749
0.8
0.00246749
0.8
0.00246749
0.8
0.00246749
0.8
0.00246749
0.8
0.00246749
0.8
0.00246749
0.8
0.00246749
0.8
0.00246749
0.8
0.00246749
0.8
0.00246749
0.8
0.00246749
0.8
0.00246749
0.8
0.00246749
0.8
0.00246749
0.8
0.00246749
0.8
0.00246749
0.8
0.00246749
0.8
0.00246749
0.8
0.00246749
0.8
0.00246749
0.8
0.00246749
0.8
0.00246749
0.8
0.00246749
0.8
0.00246749
0.8
0.00246749
0.8
0.00246749
0.8
0.00246749
0.8
0.00246749
0.8
0.00246749
0.8
0.00246749
0.8
0.00246749
0.8
0.00246749
0.8
0.00246749
0.8
0.00246749
0.8
0.00246749
0.8
0.00246749
0.8
0.00246749
0.8
0.00246749
0.8
0.00246749
0.8
0.00246749
0.8
0.00246749
0.8
0.00246749
0.8
0.00246749
0.8
0.00246749
0.8
0.00246749
0.8
0.00246749
0.8
0.00246749
0.8
0.00246749
0.8
0.00246749
0.8
0.00246749
0.8
0.00246749
0.8
0.00246748
0.8
0.00246748
0.8
0.00246748
0.8
0.00246747
0.8
0.00246746
0.8
0.00246744
0.8
0.00246741
0.8
0.00246738
0.800001
0.00246737
0.800001
0.00246746
0.8
0.00246781
0.799998
0.00246912
0.799991
0.00247233
0.799975
0.00248362
0.799936
0.799898
0.00172863
0.787738
0.00207596
0.794435
0.00221891
0.797987
0.00227364
0.799377
0.00227688
0.800092
0.00227069
0.800233
0.00225585
0.800302
0.00224454
0.80024
0.00223363
0.800203
0.00222631
0.800142
0.00222036
0.800107
0.00221651
0.800072
0.0022136
0.800052
0.00221174
0.800034
0.00221039
0.800024
0.00220954
0.800015
0.00220893
0.800011
0.00220855
0.800007
0.00220828
0.800005
0.00220811
0.800003
0.00220799
0.800002
0.00220792
0.800001
0.00220787
0.800001
0.00220784
0.800001
0.00220781
0.8
0.0022078
0.8
0.00220779
0.8
0.00220779
0.8
0.00220778
0.8
0.00220778
0.8
0.00220778
0.8
0.00220778
0.8
0.00220778
0.8
0.00220778
0.8
0.00220778
0.8
0.00220778
0.8
0.00220778
0.8
0.00220778
0.8
0.00220778
0.8
0.00220778
0.8
0.00220778
0.8
0.00220778
0.8
0.00220778
0.8
0.00220778
0.8
0.00220778
0.8
0.00220778
0.8
0.00220778
0.8
0.00220778
0.8
0.00220778
0.8
0.00220778
0.8
0.00220778
0.8
0.00220778
0.8
0.00220778
0.8
0.00220778
0.8
0.00220778
0.8
0.00220778
0.8
0.00220778
0.8
0.00220778
0.8
0.00220778
0.8
0.00220778
0.8
0.00220778
0.8
0.00220778
0.8
0.00220778
0.8
0.00220778
0.8
0.00220778
0.8
0.00220778
0.8
0.00220778
0.8
0.00220778
0.8
0.00220778
0.8
0.00220778
0.8
0.00220778
0.8
0.00220778
0.8
0.00220778
0.8
0.00220778
0.8
0.00220778
0.8
0.00220778
0.8
0.00220778
0.8
0.00220778
0.8
0.00220778
0.8
0.00220778
0.8
0.00220778
0.8
0.00220778
0.8
0.00220778
0.8
0.00220778
0.8
0.00220778
0.8
0.00220777
0.8
0.00220777
0.8
0.00220777
0.8
0.00220776
0.8
0.00220775
0.8
0.00220773
0.8
0.00220771
0.8
0.00220768
0.800001
0.00220768
0.800001
0.00220777
0.8
0.00220812
0.799998
0.00220941
0.79999
0.00221253
0.799972
0.00222353
0.799925
0.799878
0.00151312
0.787123
0.00182496
0.794123
0.00195427
0.797858
0.00200456
0.799327
0.00200826
0.800089
0.00200339
0.800238
0.00199042
0.800315
0.00198056
0.80025
0.00197093
0.800212
0.00196448
0.800149
0.00195921
0.800113
0.00195581
0.800076
0.00195322
0.800054
0.00195157
0.800036
0.00195037
0.800025
0.00194961
0.800016
0.00194907
0.800011
0.00194873
0.800007
0.00194849
0.800005
0.00194834
0.800003
0.00194824
0.800002
0.00194817
0.800001
0.00194813
0.800001
0.0019481
0.800001
0.00194808
0.8
0.00194807
0.8
0.00194806
0.8
0.00194806
0.8
0.00194805
0.8
0.00194805
0.8
0.00194805
0.8
0.00194805
0.8
0.00194805
0.8
0.00194805
0.8
0.00194805
0.8
0.00194805
0.8
0.00194805
0.8
0.00194805
0.8
0.00194805
0.8
0.00194805
0.8
0.00194805
0.8
0.00194805
0.8
0.00194805
0.8
0.00194805
0.8
0.00194805
0.8
0.00194805
0.8
0.00194805
0.8
0.00194805
0.8
0.00194805
0.8
0.00194805
0.8
0.00194805
0.8
0.00194805
0.8
0.00194805
0.8
0.00194805
0.8
0.00194805
0.8
0.00194805
0.8
0.00194805
0.8
0.00194805
0.8
0.00194805
0.8
0.00194805
0.8
0.00194805
0.8
0.00194805
0.8
0.00194805
0.8
0.00194805
0.8
0.00194805
0.8
0.00194805
0.8
0.00194805
0.8
0.00194805
0.8
0.00194805
0.8
0.00194805
0.8
0.00194805
0.8
0.00194805
0.8
0.00194805
0.8
0.00194805
0.8
0.00194805
0.8
0.00194805
0.8
0.00194805
0.8
0.00194805
0.8
0.00194805
0.8
0.00194805
0.8
0.00194805
0.8
0.00194805
0.8
0.00194805
0.8
0.00194805
0.8
0.00194804
0.8
0.00194804
0.8
0.00194804
0.8
0.00194804
0.8
0.00194803
0.8
0.00194802
0.8
0.00194801
0.8
0.00194799
0.800001
0.00194797
0.800001
0.00194796
0.800001
0.00194806
0.8
0.00194839
0.799997
0.00194963
0.799989
0.00195257
0.799969
0.00196299
0.799915
0.799858
0.0013022
0.786591
0.0015765
0.793849
0.00169097
0.797744
0.00173606
0.799282
0.00173991
0.800085
0.00173613
0.800242
0.001725
0.800326
0.00171655
0.800258
0.00170819
0.800221
0.00170262
0.800154
0.00169803
0.800117
0.00169507
0.800078
0.00169282
0.800057
0.00169139
0.800037
0.00169034
0.800026
0.00168968
0.800017
0.0016892
0.800012
0.00168891
0.800007
0.0016887
0.800005
0.00168857
0.800003
0.00168848
0.800002
0.00168842
0.800001
0.00168838
0.800001
0.00168836
0.800001
0.00168834
0.8
0.00168833
0.8
0.00168832
0.8
0.00168832
0.8
0.00168831
0.8
0.00168831
0.8
0.00168831
0.8
0.00168831
0.8
0.00168831
0.8
0.00168831
0.8
0.00168831
0.8
0.00168831
0.8
0.00168831
0.8
0.00168831
0.8
0.00168831
0.8
0.00168831
0.8
0.00168831
0.8
0.00168831
0.8
0.00168831
0.8
0.00168831
0.8
0.00168831
0.8
0.00168831
0.8
0.00168831
0.8
0.00168831
0.8
0.00168831
0.8
0.00168831
0.8
0.00168831
0.8
0.00168831
0.8
0.00168831
0.8
0.00168831
0.8
0.00168831
0.8
0.00168831
0.8
0.00168831
0.8
0.00168831
0.8
0.00168831
0.8
0.00168831
0.8
0.00168831
0.8
0.00168831
0.8
0.00168831
0.8
0.00168831
0.8
0.00168831
0.8
0.00168831
0.8
0.00168831
0.8
0.00168831
0.8
0.00168831
0.8
0.00168831
0.8
0.00168831
0.8
0.00168831
0.8
0.00168831
0.8
0.00168831
0.8
0.00168831
0.8
0.00168831
0.8
0.00168831
0.8
0.00168831
0.8
0.00168831
0.8
0.00168831
0.8
0.00168831
0.8
0.00168831
0.8
0.00168831
0.8
0.00168831
0.8
0.00168831
0.8
0.00168831
0.8
0.00168831
0.8
0.0016883
0.8
0.0016883
0.8
0.00168829
0.8
0.00168827
0.8
0.00168826
0.800001
0.00168824
0.800001
0.00168824
0.800001
0.00168833
0.8
0.00168865
0.799997
0.0016898
0.799988
0.0016925
0.799966
0.00170207
0.799905
0.79984
0.00109523
0.786142
0.00133024
0.793614
0.00142884
0.797645
0.00146807
0.799242
0.00147181
0.800081
0.00146893
0.800245
0.00145959
0.800335
0.00145251
0.800265
0.00144543
0.800228
0.00144072
0.800159
0.00143682
0.800121
0.00143432
0.800081
0.0014324
0.800059
0.00143119
0.800038
0.0014303
0.800027
0.00142974
0.800017
0.00142933
0.800012
0.00142908
0.800008
0.0014289
0.800005
0.00142879
0.800003
0.00142871
0.800002
0.00142866
0.800001
0.00142863
0.800001
0.00142861
0.800001
0.0014286
0.8
0.00142859
0.8
0.00142858
0.8
0.00142858
0.8
0.00142857
0.8
0.00142857
0.8
0.00142857
0.8
0.00142857
0.8
0.00142857
0.8
0.00142857
0.8
0.00142857
0.8
0.00142857
0.8
0.00142857
0.8
0.00142857
0.8
0.00142857
0.8
0.00142857
0.8
0.00142857
0.8
0.00142857
0.8
0.00142857
0.8
0.00142857
0.8
0.00142857
0.8
0.00142857
0.8
0.00142857
0.8
0.00142857
0.8
0.00142857
0.8
0.00142857
0.8
0.00142857
0.8
0.00142857
0.8
0.00142857
0.8
0.00142857
0.8
0.00142857
0.8
0.00142857
0.8
0.00142857
0.8
0.00142857
0.8
0.00142857
0.8
0.00142857
0.8
0.00142857
0.8
0.00142857
0.8
0.00142857
0.8
0.00142857
0.8
0.00142857
0.8
0.00142857
0.8
0.00142857
0.8
0.00142857
0.8
0.00142857
0.8
0.00142857
0.8
0.00142857
0.8
0.00142857
0.8
0.00142857
0.8
0.00142857
0.8
0.00142857
0.8
0.00142857
0.8
0.00142857
0.8
0.00142857
0.8
0.00142857
0.8
0.00142857
0.8
0.00142857
0.8
0.00142857
0.8
0.00142857
0.8
0.00142857
0.8
0.00142857
0.8
0.00142857
0.8
0.00142857
0.8
0.00142856
0.8
0.00142856
0.8
0.00142855
0.8
0.00142854
0.8
0.00142853
0.800001
0.00142851
0.800001
0.00142852
0.800001
0.0014286
0.8
0.00142888
0.799997
0.00142991
0.799987
0.00143231
0.799964
0.0014408
0.799897
0.799824
0.000891602
0.785776
0.00108583
0.79342
0.00116769
0.797563
0.00120053
0.79921
0.00120392
0.800078
0.00120178
0.800247
0.00119419
0.800343
0.00118845
0.800271
0.00118265
0.800233
0.0011788
0.800163
0.00117561
0.800124
0.00117356
0.800083
0.00117198
0.80006
0.00117098
0.800039
0.00117025
0.800028
0.00116979
0.800018
0.00116946
0.800012
0.00116925
0.800008
0.0011691
0.800005
0.00116901
0.800003
0.00116895
0.800002
0.00116891
0.800001
0.00116888
0.800001
0.00116886
0.800001
0.00116885
0.8
0.00116884
0.8
0.00116884
0.8
0.00116884
0.8
0.00116883
0.8
0.00116883
0.8
0.00116883
0.8
0.00116883
0.8
0.00116883
0.8
0.00116883
0.8
0.00116883
0.8
0.00116883
0.8
0.00116883
0.8
0.00116883
0.8
0.00116883
0.8
0.00116883
0.8
0.00116883
0.8
0.00116883
0.8
0.00116883
0.8
0.00116883
0.8
0.00116883
0.8
0.00116883
0.8
0.00116883
0.8
0.00116883
0.8
0.00116883
0.8
0.00116883
0.8
0.00116883
0.8
0.00116883
0.8
0.00116883
0.8
0.00116883
0.8
0.00116883
0.8
0.00116883
0.8
0.00116883
0.8
0.00116883
0.8
0.00116883
0.8
0.00116883
0.8
0.00116883
0.8
0.00116883
0.8
0.00116883
0.8
0.00116883
0.8
0.00116883
0.8
0.00116883
0.8
0.00116883
0.8
0.00116883
0.8
0.00116883
0.8
0.00116883
0.8
0.00116883
0.8
0.00116883
0.8
0.00116883
0.8
0.00116883
0.8
0.00116883
0.8
0.00116883
0.8
0.00116883
0.8
0.00116883
0.8
0.00116883
0.8
0.00116883
0.8
0.00116883
0.8
0.00116883
0.8
0.00116883
0.8
0.00116883
0.8
0.00116883
0.8
0.00116883
0.8
0.00116883
0.8
0.00116883
0.8
0.00116882
0.8
0.00116882
0.8
0.00116881
0.8
0.00116879
0.800001
0.00116878
0.800001
0.00116879
0.800001
0.00116886
0.8
0.0011691
0.799997
0.00116999
0.799986
0.00117202
0.799962
0.00117925
0.79989
0.79981
0.00069068
0.785492
0.000842951
0.793267
0.000907358
0.797499
0.000933359
0.799184
0.000936196
0.800075
0.000934671
0.800248
0.000928801
0.800349
0.000924364
0.800276
0.000919857
0.800238
0.000916867
0.800166
0.000914373
0.800127
0.000912777
0.800085
0.000911548
0.800061
0.000910772
0.80004
0.000910199
0.800028
0.00090984
0.800018
0.000909581
0.800013
0.000909419
0.800008
0.000909304
0.800006
0.000909233
0.800004
0.000909182
0.800002
0.000909151
0.800002
0.000909129
0.800001
0.000909116
0.800001
0.000909107
0.8
0.000909101
0.8
0.000909097
0.8
0.000909095
0.8
0.000909093
0.8
0.000909093
0.8
0.000909091
0.8
0.000909091
0.8
0.000909091
0.8
0.000909091
0.8
0.00090909
0.8
0.000909091
0.8
0.00090909
0.8
0.000909091
0.8
0.00090909
0.8
0.000909091
0.8
0.00090909
0.8
0.000909091
0.8
0.00090909
0.8
0.000909091
0.8
0.00090909
0.8
0.000909091
0.8
0.00090909
0.8
0.000909091
0.8
0.00090909
0.8
0.000909091
0.8
0.00090909
0.8
0.000909091
0.8
0.00090909
0.8
0.000909091
0.8
0.00090909
0.8
0.000909091
0.8
0.00090909
0.8
0.000909091
0.8
0.00090909
0.8
0.000909091
0.8
0.00090909
0.8
0.000909091
0.8
0.00090909
0.8
0.000909091
0.8
0.000909091
0.8
0.000909091
0.8
0.000909091
0.8
0.000909091
0.8
0.000909091
0.8
0.000909091
0.8
0.00090909
0.8
0.000909091
0.8
0.00090909
0.8
0.000909091
0.8
0.000909091
0.8
0.000909091
0.8
0.000909091
0.8
0.000909091
0.8
0.000909091
0.8
0.000909091
0.8
0.00090909
0.8
0.000909091
0.8
0.00090909
0.8
0.00090909
0.8
0.00090909
0.8
0.000909089
0.8
0.000909088
0.8
0.000909087
0.8
0.000909083
0.8
0.000909079
0.8
0.000909072
0.8
0.000909063
0.800001
0.000909055
0.800001
0.00090906
0.800001
0.00090912
0.8
0.000909315
0.799996
0.000910026
0.799985
0.00091166
0.79996
0.000917447
0.799884
0.799799
0.000491855
0.78529
0.000601259
0.793158
0.00064766
0.797452
0.000666477
0.799165
0.000668613
0.800073
0.000667597
0.80025
0.000663423
0.800353
0.000660269
0.800279
0.000657049
0.800241
0.000654915
0.800168
0.000653131
0.800129
0.00065199
0.800086
0.00065111
0.800062
0.000650555
0.800041
0.000650144
0.800029
0.000649887
0.800019
0.000649701
0.800013
0.000649586
0.800008
0.000649503
0.800006
0.000649452
0.800004
0.000649416
0.800002
0.000649394
0.800002
0.000649378
0.800001
0.000649369
0.800001
0.000649362
0.8
0.000649358
0.8
0.000649355
0.8
0.000649354
0.8
0.000649352
0.8
0.000649352
0.8
0.000649351
0.8
0.000649351
0.8
0.00064935
0.8
0.000649351
0.8
0.00064935
0.8
0.000649351
0.8
0.00064935
0.8
0.000649351
0.8
0.00064935
0.8
0.000649351
0.8
0.00064935
0.8
0.000649351
0.8
0.00064935
0.8
0.000649351
0.8
0.00064935
0.8
0.000649351
0.8
0.00064935
0.8
0.000649351
0.8
0.00064935
0.8
0.000649351
0.8
0.00064935
0.8
0.000649351
0.8
0.00064935
0.8
0.000649351
0.8
0.00064935
0.8
0.000649351
0.8
0.00064935
0.8
0.000649351
0.8
0.00064935
0.8
0.000649351
0.8
0.00064935
0.8
0.000649351
0.8
0.00064935
0.8
0.000649351
0.8
0.00064935
0.8
0.000649351
0.8
0.00064935
0.8
0.000649351
0.8
0.00064935
0.8
0.000649351
0.8
0.00064935
0.8
0.000649351
0.8
0.00064935
0.8
0.000649351
0.8
0.00064935
0.8
0.000649351
0.8
0.00064935
0.8
0.000649351
0.8
0.00064935
0.8
0.000649351
0.8
0.00064935
0.8