/*--------------------------------*- C++ -*----------------------------------*\
| =========                 |                                                 |
| \\      /  F ield         | OpenFOAM: The Open Source CFD Toolbox           |
|  \\    /   O peration     | Version:  v1906                                 |
|   \\  /    A nd           | Web:      www.OpenFOAM.com                      |
|    \\/     M anipulation  |                                                 |
\*---------------------------------------------------------------------------*/
FoamFile
{
    version     2.0;
    format      ascii;
    class       volVectorField;
    location    "2";
    object      U;
}
// * * * * * * * * * * * * * * * * * * * * * * * * * * * * * * * * * * * * * //

dimensions      [0 1 -1 0 0 0 0];


internalField   nonuniform List<vector> 
4000
(
(0.427054 0.0732099 0)
(0.418072 0.00685429 0)
(0.375366 -0.000524403 0)
(0.378982 -0.00107172 0)
(0.377749 -0.00130997 0)
(0.378945 -0.00121015 0)
(0.378707 -0.0012016 0)
(0.378656 -0.00117706 0)
(0.378368 -0.00117981 0)
(0.378159 -0.00118038 0)
(0.377947 -0.00118475 0)
(0.37778 -0.00118773 0)
(0.377636 -0.00119081 0)
(0.377517 -0.00119316 0)
(0.377416 -0.00119517 0)
(0.377332 -0.00119674 0)
(0.37726 -0.00119806 0)
(0.3772 -0.00119914 0)
(0.377149 -0.00120002 0)
(0.377105 -0.00120076 0)
(0.377068 -0.00120139 0)
(0.377036 -0.00120191 0)
(0.377009 -0.00120237 0)
(0.376986 -0.00120272 0)
(0.376967 -0.00120303 0)
(0.37695 -0.00120331 0)
(0.376937 -0.00120354 0)
(0.376925 -0.00120374 0)
(0.376916 -0.00120391 0)
(0.376908 -0.00120404 0)
(0.376901 -0.00120416 0)
(0.376895 -0.00120425 0)
(0.376891 -0.00120434 0)
(0.376887 -0.0012044 0)
(0.376884 -0.00120447 0)
(0.376881 -0.00120452 0)
(0.376879 -0.00120456 0)
(0.376878 -0.0012046 0)
(0.376876 -0.00120461 0)
(0.376875 -0.00120463 0)
(0.376874 -0.00120466 0)
(0.376874 -0.00120467 0)
(0.376873 -0.0012047 0)
(0.376873 -0.00120469 0)
(0.376872 -0.0012047 0)
(0.376872 -0.0012047 0)
(0.376872 -0.00120472 0)
(0.376872 -0.00120473 0)
(0.376872 -0.00120473 0)
(0.376872 -0.00120472 0)
(0.376871 -0.00120473 0)
(0.376871 -0.00120472 0)
(0.376871 -0.00120473 0)
(0.376871 -0.00120473 0)
(0.376871 -0.00120474 0)
(0.376871 -0.00120473 0)
(0.376871 -0.00120473 0)
(0.376871 -0.00120472 0)
(0.376871 -0.00120473 0)
(0.376871 -0.00120473 0)
(0.376871 -0.00120474 0)
(0.376871 -0.00120473 0)
(0.376871 -0.00120473 0)
(0.376871 -0.00120472 0)
(0.376871 -0.00120473 0)
(0.376871 -0.00120473 0)
(0.376871 -0.00120474 0)
(0.376871 -0.00120473 0)
(0.376871 -0.00120473 0)
(0.376871 -0.00120473 0)
(0.376871 -0.00120473 0)
(0.376871 -0.00120473 0)
(0.376871 -0.00120473 0)
(0.376871 -0.00120473 0)
(0.376871 -0.00120473 0)
(0.376871 -0.00120472 0)
(0.376871 -0.00120473 0)
(0.376871 -0.00120472 0)
(0.376871 -0.00120472 0)
(0.376871 -0.00120472 0)
(0.376871 -0.00120472 0)
(0.376871 -0.00120471 0)
(0.37687 -0.00120471 0)
(0.37687 -0.0012047 0)
(0.37687 -0.00120469 0)
(0.376869 -0.00120467 0)
(0.376869 -0.00120464 0)
(0.376868 -0.00120459 0)
(0.376866 -0.00120454 0)
(0.376864 -0.00120446 0)
(0.376861 -0.00120436 0)
(0.376857 -0.00120426 0)
(0.376853 -0.0012042 0)
(0.376847 -0.00120433 0)
(0.376845 -0.00120472 0)
(0.376839 -0.00120466 0)
(0.376839 -0.00120166 0)
(0.376711 -0.00118546 0)
(0.376552 -0.00116681 0)
(0.376217 -0.00130297 0)
(0.789012 0.172001 0)
(0.802434 0.024086 0)
(0.735229 0.00283824 0)
(0.741153 8.2256e-05 0)
(0.738249 -0.000770674 0)
(0.740403 -0.00045823 0)
(0.739968 -0.000395026 0)
(0.739936 -0.000302855 0)
(0.73945 -0.000304898 0)
(0.739101 -0.000306694 0)
(0.738738 -0.00032178 0)
(0.738452 -0.000333648 0)
(0.738201 -0.00034554 0)
(0.737995 -0.000354775 0)
(0.73782 -0.000362672 0)
(0.737673 -0.000369044 0)
(0.737548 -0.000374421 0)
(0.737442 -0.000378894 0)
(0.737352 -0.000382624 0)
(0.737275 -0.000385777 0)
(0.737209 -0.000388488 0)
(0.737153 -0.000390751 0)
(0.737105 -0.000392745 0)
(0.737064 -0.000394393 0)
(0.737029 -0.000395819 0)
(0.736999 -0.000397087 0)
(0.736975 -0.000398163 0)
(0.736954 -0.000399095 0)
(0.736936 -0.000399886 0)
(0.736921 -0.000400519 0)
(0.736909 -0.00040109 0)
(0.736899 -0.000401522 0)
(0.73689 -0.000401949 0)
(0.736883 -0.00040226 0)
(0.736877 -0.000402559 0)
(0.736873 -0.000402793 0)
(0.736869 -0.000402975 0)
(0.736866 -0.000403129 0)
(0.736863 -0.000403245 0)
(0.736861 -0.000403335 0)
(0.736859 -0.00040346 0)
(0.736858 -0.000403516 0)
(0.736857 -0.000403607 0)
(0.736856 -0.000403624 0)
(0.736855 -0.000403669 0)
(0.736854 -0.000403694 0)
(0.736854 -0.000403738 0)
(0.736854 -0.000403766 0)
(0.736853 -0.000403794 0)
(0.736853 -0.000403782 0)
(0.736853 -0.000403793 0)
(0.736853 -0.00040377 0)
(0.736853 -0.000403799 0)
(0.736853 -0.000403795 0)
(0.736853 -0.000403817 0)
(0.736853 -0.000403796 0)
(0.736853 -0.000403794 0)
(0.736853 -0.000403778 0)
(0.736853 -0.000403804 0)
(0.736853 -0.000403803 0)
(0.736853 -0.000403822 0)
(0.736853 -0.000403796 0)
(0.736853 -0.000403802 0)
(0.736853 -0.000403791 0)
(0.736853 -0.000403817 0)
(0.736853 -0.000403813 0)
(0.736853 -0.000403825 0)
(0.736853 -0.000403806 0)
(0.736853 -0.000403815 0)
(0.736853 -0.000403804 0)
(0.736853 -0.000403814 0)
(0.736853 -0.000403798 0)
(0.736853 -0.000403802 0)
(0.736853 -0.000403784 0)
(0.736853 -0.000403794 0)
(0.736853 -0.000403781 0)
(0.736853 -0.000403791 0)
(0.736852 -0.000403775 0)
(0.736852 -0.000403777 0)
(0.736852 -0.000403761 0)
(0.736852 -0.00040376 0)
(0.736852 -0.00040374 0)
(0.736852 -0.000403729 0)
(0.736851 -0.00040369 0)
(0.736851 -0.000403643 0)
(0.73685 -0.000403557 0)
(0.736849 -0.000403447 0)
(0.736847 -0.000403275 0)
(0.736844 -0.00040305 0)
(0.736841 -0.000402732 0)
(0.736835 -0.000402326 0)
(0.736829 -0.000401902 0)
(0.73682 -0.000401572 0)
(0.73681 -0.000401758 0)
(0.736802 -0.000402269 0)
(0.736784 -0.000400171 0)
(0.736764 -0.000382636 0)
(0.736486 -0.000315984 0)
(0.736102 -0.000212971 0)
(0.734294 -0.000457852 0)
(0.938103 0.195355 0)
(0.975019 0.0389543 0)
(0.906981 0.00767996 0)
(0.914195 0.00116734 0)
(0.910111 -0.000440605 0)
(0.912633 8.44414e-06 0)
(0.912076 0.000172053 0)
(0.912107 0.000348141 0)
(0.911579 0.000357092 0)
(0.911219 0.000352529 0)
(0.910828 0.000322523 0)
(0.910521 0.000297059 0)
(0.910251 0.000272732 0)
(0.91003 0.000253784 0)
(0.90984 0.000237675 0)
(0.909682 0.000224564 0)
(0.909546 0.000213614 0)
(0.909432 0.000204509 0)
(0.909333 0.000196887 0)
(0.909249 0.000190455 0)
(0.909177 0.000184951 0)
(0.909116 0.000180346 0)
(0.909063 0.000176282 0)
(0.909017 0.000172833 0)
(0.908979 0.000169841 0)
(0.908946 0.00016721 0)
(0.908918 0.00016498 0)
(0.908894 0.000163055 0)
(0.908874 0.000161407 0)
(0.908857 0.000160054 0)
(0.908843 0.000158832 0)
(0.908831 0.000157888 0)
(0.908822 0.000156985 0)
(0.908813 0.000156306 0)
(0.908807 0.000155696 0)
(0.908801 0.000155201 0)
(0.908796 0.000154821 0)
(0.908793 0.000154483 0)
(0.90879 0.000154204 0)
(0.908787 0.000154 0)
(0.908785 0.000153754 0)
(0.908783 0.000153644 0)
(0.908782 0.000153466 0)
(0.908781 0.000153396 0)
(0.90878 0.000153284 0)
(0.908779 0.000153214 0)
(0.908779 0.000153141 0)
(0.908778 0.000153098 0)
(0.908778 0.000153052 0)
(0.908778 0.00015306 0)
(0.908778 0.000153015 0)
(0.908778 0.000153038 0)
(0.908778 0.000152991 0)
(0.908777 0.000153011 0)
(0.908777 0.000152989 0)
(0.908777 0.000153019 0)
(0.908777 0.000153009 0)
(0.908777 0.000153027 0)
(0.908777 0.000152995 0)
(0.908777 0.000153012 0)
(0.908777 0.000152983 0)
(0.908777 0.000153012 0)
(0.908777 0.000152984 0)
(0.908777 0.000152998 0)
(0.908777 0.00015296 0)
(0.908777 0.000152971 0)
(0.908777 0.000152947 0)
(0.908777 0.000152969 0)
(0.908777 0.00015295 0)
(0.908777 0.00015297 0)
(0.908777 0.000152957 0)
(0.908777 0.000152988 0)
(0.908777 0.000152984 0)
(0.908777 0.000153017 0)
(0.908777 0.00015301 0)
(0.908777 0.000153038 0)
(0.908777 0.000153028 0)
(0.908777 0.000153052 0)
(0.908777 0.000153047 0)
(0.908777 0.000153071 0)
(0.908776 0.000153073 0)
(0.908776 0.00015311 0)
(0.908776 0.000153139 0)
(0.908775 0.000153221 0)
(0.908775 0.000153319 0)
(0.908774 0.000153495 0)
(0.908773 0.000153724 0)
(0.908771 0.00015408 0)
(0.908768 0.000154555 0)
(0.908764 0.000155215 0)
(0.908758 0.000156061 0)
(0.90875 0.000156972 0)
(0.908741 0.000157792 0)
(0.908728 0.000157813 0)
(0.908717 0.000158223 0)
(0.908687 0.000165067 0)
(0.908646 0.000210327 0)
(0.90828 0.000360057 0)
(0.907753 0.000653243 0)
(0.904638 0.000606962 0)
(0.99617 0.187118 0)
(1.04996 0.0487211 0)
(0.988491 0.0120563 0)
(0.996734 0.00171744 0)
(0.991883 -0.000561137 0)
(0.994529 -7.01504e-05 0)
(0.993878 0.000206503 0)
(0.993985 0.000461108 0)
(0.993481 0.000487032 0)
(0.993164 0.000479673 0)
(0.9928 0.000436015 0)
(0.99252 0.000397776 0)
(0.99227 0.000361372 0)
(0.992066 0.000332184 0)
(0.991891 0.000307239 0)
(0.991744 0.000286937 0)
(0.991618 0.000270491 0)
(0.991511 0.000256845 0)
(0.99142 0.000245403 0)
(0.991341 0.000235743 0)
(0.991274 0.000227473 0)
(0.991216 0.0002205 0)
(0.991165 0.000214383 0)
(0.991122 0.000209171 0)
(0.991085 0.000204648 0)
(0.991054 0.000200698 0)
(0.991027 0.000197331 0)
(0.991004 0.000194425 0)
(0.990984 0.000191918 0)
(0.990968 0.000189831 0)
(0.990954 0.000187953 0)
(0.990942 0.000186483 0)
(0.990932 0.000185108 0)
(0.990924 0.000184055 0)
(0.990917 0.000183128 0)
(0.990912 0.000182363 0)
(0.990907 0.000181761 0)
(0.990903 0.000181231 0)
(0.9909 0.00018078 0)
(0.990897 0.000180457 0)
(0.990895 0.000180086 0)
(0.990893 0.0001799 0)
(0.990892 0.000179622 0)
(0.990891 0.000179486 0)
(0.99089 0.000179305 0)
(0.990889 0.000179193 0)
(0.990889 0.000179088 0)
(0.990888 0.000179024 0)
(0.990888 0.000178945 0)
(0.990888 0.00017894 0)
(0.990888 0.000178865 0)
(0.990887 0.000178895 0)
(0.990887 0.000178839 0)
(0.990887 0.000178872 0)
(0.990887 0.000178842 0)
(0.990887 0.000178875 0)
(0.990887 0.000178855 0)
(0.990887 0.000178883 0)
(0.990887 0.000178846 0)
(0.990887 0.000178871 0)
(0.990887 0.000178828 0)
(0.990887 0.000178857 0)
(0.990887 0.000178815 0)
(0.990887 0.000178834 0)
(0.990887 0.000178787 0)
(0.990887 0.000178801 0)
(0.990887 0.000178765 0)
(0.990887 0.00017879 0)
(0.990887 0.000178764 0)
(0.990887 0.000178795 0)
(0.990887 0.00017878 0)
(0.990887 0.000178828 0)
(0.990887 0.000178825 0)
(0.990887 0.000178874 0)
(0.990887 0.000178868 0)
(0.990887 0.000178908 0)
(0.990887 0.000178895 0)
(0.990887 0.000178925 0)
(0.990887 0.000178916 0)
(0.990886 0.000178951 0)
(0.990886 0.000178959 0)
(0.990886 0.000179019 0)
(0.990886 0.000179069 0)
(0.990885 0.000179193 0)
(0.990885 0.000179344 0)
(0.990884 0.000179611 0)
(0.990883 0.000179964 0)
(0.990881 0.000180511 0)
(0.990878 0.000181247 0)
(0.990874 0.000182264 0)
(0.990869 0.000183576 0)
(0.990861 0.000185031 0)
(0.990852 0.0001865 0)
(0.990839 0.000187089 0)
(0.990825 0.000189548 0)
(0.990786 0.000203119 0)
(0.990731 0.000283728 0)
(0.990322 0.000530318 0)
(0.98974 0.00109574 0)
(0.985952 0.00141742 0)
(1.0156 0.170963 0)
(1.07994 0.0545099 0)
(1.02682 0.0154881 0)
(1.03594 0.00206021 0)
(1.03064 -0.000747675 0)
(1.0333 -0.000265941 0)
(1.03258 0.000116979 0)
(1.03276 0.000431633 0)
(1.0323 0.000474463 0)
(1.03206 0.000465004 0)
(1.03174 0.000412302 0)
(1.03151 0.000364621 0)
(1.0313 0.000318938 0)
(1.03112 0.000281475 0)
(1.03097 0.000249541 0)
(1.03085 0.000223405 0)
(1.03074 0.000202064 0)
(1.03065 0.000184301 0)
(1.03057 0.000169341 0)
(1.03051 0.000156641 0)
(1.03045 0.000145684 0)
(1.0304 0.000136328 0)
(1.03035 0.000128286 0)
(1.03031 0.000121533 0)
(1.03028 0.000115669 0)
(1.03025 0.000110551 0)
(1.03023 0.000106162 0)
(1.03021 0.000102359 0)
(1.03019 9.90508e-05 0)
(1.03018 9.63005e-05 0)
(1.03016 9.38345e-05 0)
(1.03015 9.1891e-05 0)
(1.03015 9.00983e-05 0)
(1.03014 8.87079e-05 0)
(1.03013 8.74897e-05 0)
(1.03013 8.64709e-05 0)
(1.03012 8.56588e-05 0)
(1.03012 8.49526e-05 0)
(1.03011 8.43418e-05 0)
(1.03011 8.3906e-05 0)
(1.03011 8.34126e-05 0)
(1.03011 8.31454e-05 0)
(1.03011 8.27756e-05 0)
(1.03011 8.25752e-05 0)
(1.0301 8.23348e-05 0)
(1.0301 8.21815e-05 0)
(1.0301 8.20392e-05 0)
(1.0301 8.19497e-05 0)
(1.0301 8.1837e-05 0)
(1.0301 8.18206e-05 0)
(1.0301 8.17207e-05 0)
(1.0301 8.1755e-05 0)
(1.0301 8.16906e-05 0)
(1.0301 8.17305e-05 0)
(1.0301 8.16935e-05 0)
(1.0301 8.17304e-05 0)
(1.0301 8.17047e-05 0)
(1.0301 8.17418e-05 0)
(1.0301 8.16996e-05 0)
(1.0301 8.17315e-05 0)
(1.0301 8.16737e-05 0)
(1.0301 8.17035e-05 0)
(1.0301 8.16492e-05 0)
(1.0301 8.16708e-05 0)
(1.0301 8.16148e-05 0)
(1.0301 8.16293e-05 0)
(1.0301 8.15826e-05 0)
(1.0301 8.16102e-05 0)
(1.0301 8.15773e-05 0)
(1.0301 8.16178e-05 0)
(1.0301 8.16027e-05 0)
(1.0301 8.16662e-05 0)
(1.0301 8.16662e-05 0)
(1.0301 8.17291e-05 0)
(1.0301 8.17262e-05 0)
(1.0301 8.17762e-05 0)
(1.0301 8.17603e-05 0)
(1.0301 8.17947e-05 0)
(1.0301 8.17838e-05 0)
(1.0301 8.18301e-05 0)
(1.0301 8.18457e-05 0)
(1.0301 8.19254e-05 0)
(1.0301 8.19928e-05 0)
(1.0301 8.21532e-05 0)
(1.0301 8.235e-05 0)
(1.0301 8.26982e-05 0)
(1.0301 8.31637e-05 0)
(1.0301 8.38803e-05 0)
(1.03009 8.48517e-05 0)
(1.03009 8.61871e-05 0)
(1.03009 8.79287e-05 0)
(1.03008 8.99109e-05 0)
(1.03007 9.21155e-05 0)
(1.03006 9.36015e-05 0)
(1.03004 9.90358e-05 0)
(1.03 0.000120591 0)
(1.02994 0.000239929 0)
(1.02952 0.000575295 0)
(1.02896 0.00144289 0)
(1.02509 0.00215099 0)
(1.01909 0.153497 0)
(1.08943 0.0575394 0)
(1.04453 0.0180282 0)
(1.0544 0.00236526 0)
(1.04887 -0.000844189 0)
(1.0515 -0.000404703 0)
(1.05071 7.19006e-05 0)
(1.05097 0.000429176 0)
(1.05057 0.000487466 0)
(1.0504 0.000476466 0)
(1.05014 0.000416993 0)
(1.04996 0.000361663 0)
(1.04979 0.000309046 0)
(1.04966 0.000265817 0)
(1.04954 0.000229297 0)
(1.04944 0.000199226 0)
(1.04936 0.00017411 0)
(1.04928 0.000153197 0)
(1.04922 0.000135585 0)
(1.04917 0.000120641 0)
(1.04912 0.000107748 0)
(1.04908 9.67105e-05 0)
(1.04904 8.71795e-05 0)
(1.04901 7.91107e-05 0)
(1.04899 7.20617e-05 0)
(1.04896 6.58925e-05 0)
(1.04894 6.05298e-05 0)
(1.04892 5.58501e-05 0)
(1.04891 5.17116e-05 0)
(1.0489 4.83662e-05 0)
(1.04889 4.53967e-05 0)
(1.04888 4.30318e-05 0)
(1.04887 4.08727e-05 0)
(1.04886 3.91757e-05 0)
(1.04886 3.76996e-05 0)
(1.04885 3.64638e-05 0)
(1.04885 3.54602e-05 0)
(1.04885 3.46081e-05 0)
(1.04884 3.38565e-05 0)
(1.04884 3.33198e-05 0)
(1.04884 3.27187e-05 0)
(1.04884 3.23707e-05 0)
(1.04884 3.19213e-05 0)
(1.04883 3.16634e-05 0)
(1.04883 3.13689e-05 0)
(1.04883 3.11787e-05 0)
(1.04883 3.09959e-05 0)
(1.04883 3.08828e-05 0)
(1.04883 3.07358e-05 0)
(1.04883 3.07084e-05 0)
(1.04883 3.05872e-05 0)
(1.04883 3.06224e-05 0)
(1.04883 3.05505e-05 0)
(1.04883 3.05969e-05 0)
(1.04883 3.05548e-05 0)
(1.04883 3.05987e-05 0)
(1.04883 3.05676e-05 0)
(1.04883 3.0614e-05 0)
(1.04883 3.05652e-05 0)
(1.04883 3.06013e-05 0)
(1.04883 3.05306e-05 0)
(1.04883 3.05593e-05 0)
(1.04883 3.04937e-05 0)
(1.04883 3.05168e-05 0)
(1.04883 3.04515e-05 0)
(1.04883 3.0467e-05 0)
(1.04883 3.04096e-05 0)
(1.04883 3.04406e-05 0)
(1.04883 3.04015e-05 0)
(1.04883 3.04521e-05 0)
(1.04883 3.04374e-05 0)
(1.04883 3.05158e-05 0)
(1.04883 3.05196e-05 0)
(1.04883 3.05945e-05 0)
(1.04883 3.05935e-05 0)
(1.04883 3.06516e-05 0)
(1.04883 3.06327e-05 0)
(1.04883 3.06713e-05 0)
(1.04883 3.06577e-05 0)
(1.04883 3.07142e-05 0)
(1.04883 3.07351e-05 0)
(1.04883 3.0833e-05 0)
(1.04883 3.09156e-05 0)
(1.04883 3.11067e-05 0)
(1.04883 3.13417e-05 0)
(1.04883 3.17564e-05 0)
(1.04883 3.23151e-05 0)
(1.04883 3.31726e-05 0)
(1.04882 3.43391e-05 0)
(1.04882 3.59406e-05 0)
(1.04882 3.80521e-05 0)
(1.04881 4.05381e-05 0)
(1.0488 4.35457e-05 0)
(1.04879 4.61899e-05 0)
(1.04878 5.53549e-05 0)
(1.04873 8.55717e-05 0)
(1.04867 0.000240619 0)
(1.04828 0.000654183 0)
(1.04778 0.0018186 0)
(1.04425 0.00286292 0)
(1.0165 0.136395 0)
(1.08991 0.0585026 0)
(1.05243 0.019752 0)
(1.06293 0.00262487 0)
(1.05731 -0.000873421 0)
(1.05988 -0.000493554 0)
(1.05904 5.80097e-05 0)
(1.05937 0.000446087 0)
(1.05903 0.000518158 0)
(1.05894 0.000506197 0)
(1.05874 0.000441723 0)
(1.05862 0.000380322 0)
(1.05849 0.000322202 0)
(1.0584 0.00027431 0)
(1.05831 0.000233978 0)
(1.05824 0.000200778 0)
(1.05818 0.000173069 0)
(1.05812 0.000150074 0)
(1.05808 0.000130782 0)
(1.05804 0.000114496 0)
(1.058 0.000100532 0)
(1.05797 8.86472e-05 0)
(1.05794 7.81966e-05 0)
(1.05792 6.91839e-05 0)
(1.0579 6.12762e-05 0)
(1.05788 5.43576e-05 0)
(1.05787 4.83061e-05 0)
(1.05785 4.3026e-05 0)
(1.05784 3.83302e-05 0)
(1.05783 3.44918e-05 0)
(1.05782 3.10767e-05 0)
(1.05781 2.83092e-05 0)
(1.05781 2.57865e-05 0)
(1.0578 2.37628e-05 0)
(1.0578 2.20527e-05 0)
(1.05779 2.06342e-05 0)
(1.05779 1.94596e-05 0)
(1.05779 1.8483e-05 0)
(1.05779 1.76087e-05 0)
(1.05778 1.69855e-05 0)
(1.05778 1.62948e-05 0)
(1.05778 1.5876e-05 0)
(1.05778 1.53634e-05 0)
(1.05778 1.50579e-05 0)
(1.05778 1.47171e-05 0)
(1.05778 1.44938e-05 0)
(1.05778 1.42708e-05 0)
(1.05778 1.41374e-05 0)
(1.05778 1.396e-05 0)
(1.05778 1.39234e-05 0)
(1.05778 1.37831e-05 0)
(1.05778 1.38148e-05 0)
(1.05778 1.37351e-05 0)
(1.05778 1.37884e-05 0)
(1.05778 1.37454e-05 0)
(1.05778 1.37986e-05 0)
(1.05778 1.37623e-05 0)
(1.05778 1.38159e-05 0)
(1.05778 1.37609e-05 0)
(1.05778 1.38015e-05 0)
(1.05778 1.37209e-05 0)
(1.05778 1.37469e-05 0)
(1.05778 1.3669e-05 0)
(1.05778 1.36904e-05 0)
(1.05778 1.36162e-05 0)
(1.05778 1.36332e-05 0)
(1.05778 1.35665e-05 0)
(1.05778 1.36009e-05 0)
(1.05778 1.35559e-05 0)
(1.05778 1.36159e-05 0)
(1.05778 1.36015e-05 0)
(1.05778 1.36931e-05 0)
(1.05778 1.3701e-05 0)
(1.05778 1.37864e-05 0)
(1.05778 1.37876e-05 0)
(1.05778 1.38531e-05 0)
(1.05778 1.38325e-05 0)
(1.05778 1.38751e-05 0)
(1.05778 1.38582e-05 0)
(1.05778 1.39226e-05 0)
(1.05778 1.39457e-05 0)
(1.05777 1.4058e-05 0)
(1.05777 1.41523e-05 0)
(1.05777 1.43682e-05 0)
(1.05777 1.46329e-05 0)
(1.05777 1.50995e-05 0)
(1.05777 1.57312e-05 0)
(1.05777 1.66977e-05 0)
(1.05777 1.80178e-05 0)
(1.05777 1.98445e-05 0)
(1.05777 2.22776e-05 0)
(1.05776 2.5288e-05 0)
(1.05775 2.92053e-05 0)
(1.05774 3.32003e-05 0)
(1.05773 4.61523e-05 0)
(1.05769 8.41828e-05 0)
(1.05763 0.000269219 0)
(1.05728 0.000751785 0)
(1.05688 0.00217967 0)
(1.05393 0.00349282 0)
(1.01204 0.12039 0)
(1.08673 0.0578718 0)
(1.05568 0.0207325 0)
(1.06672 0.00281259 0)
(1.06112 -0.000870603 0)
(1.06361 -0.000555645 0)
(1.06272 5.02857e-05 0)
(1.0631 0.00045959 0)
(1.06283 0.000543209 0)
(1.06281 0.000530918 0)
(1.06267 0.000463516 0)
(1.0626 0.000398072 0)
(1.06252 0.00033622 0)
(1.06246 0.000285027 0)
(1.06241 0.000241944 0)
(1.06236 0.000206485 0)
(1.06232 0.000176982 0)
(1.06229 0.00015253 0)
(1.06226 0.000132033 0)
(1.06223 0.000114756 0)
(1.06221 9.99704e-05 0)
(1.06219 8.73913e-05 0)
(1.06217 7.63162e-05 0)
(1.06215 6.67481e-05 0)
(1.06214 5.83454e-05 0)
(1.06213 5.10243e-05 0)
(1.06211 4.46247e-05 0)
(1.0621 3.90827e-05 0)
(1.0621 3.41748e-05 0)
(1.06209 3.00283e-05 0)
(1.06208 2.63176e-05 0)
(1.06208 2.32782e-05 0)
(1.06207 2.05208e-05 0)
(1.06207 1.8288e-05 0)
(1.06206 1.63826e-05 0)
(1.06206 1.48028e-05 0)
(1.06206 1.34551e-05 0)
(1.06206 1.23519e-05 0)
(1.06206 1.1358e-05 0)
(1.06205 1.0663e-05 0)
(1.06205 9.90074e-06 0)
(1.06205 9.41968e-06 0)
(1.06205 8.85678e-06 0)
(1.06205 8.51289e-06 0)
(1.06205 8.13442e-06 0)
(1.06205 7.88494e-06 0)
(1.06205 7.62473e-06 0)
(1.06205 7.47521e-06 0)
(1.06205 7.2712e-06 0)
(1.06205 7.22681e-06 0)
(1.06205 7.07048e-06 0)
(1.06205 7.09635e-06 0)
(1.06205 7.01026e-06 0)
(1.06205 7.07036e-06 0)
(1.06205 7.0293e-06 0)
(1.06205 7.09322e-06 0)
(1.06205 7.05188e-06 0)
(1.06205 7.11129e-06 0)
(1.06205 7.05021e-06 0)
(1.06205 7.09563e-06 0)
(1.06205 7.00778e-06 0)
(1.06205 7.03039e-06 0)
(1.06205 6.94021e-06 0)
(1.06205 6.9579e-06 0)
(1.06205 6.87531e-06 0)
(1.06205 6.89461e-06 0)
(1.06205 6.82041e-06 0)
(1.06205 6.85863e-06 0)
(1.06205 6.80819e-06 0)
(1.06205 6.87637e-06 0)
(1.06205 6.86176e-06 0)
(1.06205 6.96424e-06 0)
(1.06205 6.97624e-06 0)
(1.06205 7.0704e-06 0)
(1.06205 7.07379e-06 0)
(1.06205 7.14587e-06 0)
(1.06205 7.12417e-06 0)
(1.06205 7.17079e-06 0)
(1.06205 7.15023e-06 0)
(1.06205 7.22e-06 0)
(1.06205 7.24241e-06 0)
(1.06205 7.36524e-06 0)
(1.06205 7.46783e-06 0)
(1.06205 7.70207e-06 0)
(1.06205 7.98815e-06 0)
(1.06205 8.49106e-06 0)
(1.06205 9.17515e-06 0)
(1.06205 1.02265e-05 0)
(1.06204 1.16655e-05 0)
(1.06204 1.37212e-05 0)
(1.06204 1.64591e-05 0)
(1.06204 1.98944e-05 0)
(1.06203 2.4588e-05 0)
(1.06202 2.98777e-05 0)
(1.06201 4.61615e-05 0)
(1.06197 9.05859e-05 0)
(1.06192 0.000301559 0)
(1.06164 0.000838761 0)
(1.06135 0.00247832 0)
(1.0591 0.0039911 0)
(1.00742 0.105771 0)
(1.08232 0.0560177 0)
(1.05676 0.0210571 0)
(1.06825 0.0029215 0)
(1.06272 -0.000850137 0)
(1.06512 -0.00059853 0)
(1.0642 4.25894e-05 0)
(1.06463 0.000462959 0)
(1.06442 0.000555422 0)
(1.06446 0.00054338 0)
(1.06439 0.000475085 0)
(1.06436 0.000407685 0)
(1.06433 0.00034401 0)
(1.0643 0.000291089 0)
(1.06428 0.000246565 0)
(1.06425 0.000209907 0)
(1.06424 0.000179439 0)
(1.06422 0.000154193 0)
(1.06421 0.000133023 0)
(1.06419 0.000115178 0)
(1.06418 9.99108e-05 0)
(1.06417 8.69018e-05 0)
(1.06416 7.54588e-05 0)
(1.06415 6.5575e-05 0)
(1.06414 5.68684e-05 0)
(1.06414 4.93e-05 0)
(1.06413 4.26643e-05 0)
(1.06412 3.69418e-05 0)
(1.06412 3.18736e-05 0)
(1.06411 2.75741e-05 0)
(1.06411 2.37406e-05 0)
(1.06411 2.05918e-05 0)
(1.0641 1.77625e-05 0)
(1.0641 1.54791e-05 0)
(1.0641 1.34663e-05 0)
(1.0641 1.17964e-05 0)
(1.0641 1.03422e-05 0)
(1.06409 9.17168e-06 0)
(1.06409 8.09604e-06 0)
(1.06409 7.339e-06 0)
(1.06409 6.51469e-06 0)
(1.06409 5.96925e-06 0)
(1.06409 5.35614e-06 0)
(1.06409 4.98161e-06 0)
(1.06409 4.57206e-06 0)
(1.06409 4.30281e-06 0)
(1.06409 4.00959e-06 0)
(1.06409 3.84847e-06 0)
(1.06409 3.62163e-06 0)
(1.06409 3.5705e-06 0)
(1.06409 3.40237e-06 0)
(1.06409 3.42263e-06 0)
(1.06409 3.33225e-06 0)
(1.06409 3.3988e-06 0)
(1.06409 3.36065e-06 0)
(1.06409 3.43517e-06 0)
(1.06409 3.38976e-06 0)
(1.06409 3.454e-06 0)
(1.06409 3.38771e-06 0)
(1.06409 3.43744e-06 0)
(1.06409 3.345e-06 0)
(1.06409 3.36415e-06 0)
(1.06409 3.2627e-06 0)
(1.06409 3.27546e-06 0)
(1.06409 3.18519e-06 0)
(1.06409 3.20734e-06 0)
(1.06409 3.12738e-06 0)
(1.06409 3.16984e-06 0)
(1.06409 3.11478e-06 0)
(1.06409 3.18986e-06 0)
(1.06409 3.17433e-06 0)
(1.06409 3.28497e-06 0)
(1.06409 3.30062e-06 0)
(1.06409 3.4018e-06 0)
(1.06409 3.40706e-06 0)
(1.06409 3.48455e-06 0)
(1.06409 3.46236e-06 0)
(1.06409 3.51279e-06 0)
(1.06409 3.48852e-06 0)
(1.06409 3.56162e-06 0)
(1.06409 3.58076e-06 0)
(1.06409 3.71004e-06 0)
(1.06409 3.817e-06 0)
(1.06409 4.06288e-06 0)
(1.06409 4.36261e-06 0)
(1.06409 4.89032e-06 0)
(1.06409 5.61078e-06 0)
(1.06409 6.74869e-06 0)
(1.06409 8.28559e-06 0)
(1.06409 1.04691e-05 0)
(1.06408 1.33916e-05 0)
(1.06408 1.70672e-05 0)
(1.06408 2.23013e-05 0)
(1.06407 2.8702e-05 0)
(1.06406 4.79905e-05 0)
(1.06403 9.78407e-05 0)
(1.06399 0.000328883 0)
(1.06379 0.000903573 0)
(1.06361 0.00269436 0)
(1.06211 0.00433964 0)
(1.00324 0.0925292 0)
(1.07777 0.0532228 0)
(1.05685 0.0208157 0)
(1.06873 0.00295387 0)
(1.06332 -0.000816815 0)
(1.06561 -0.000623432 0)
(1.06466 3.46013e-05 0)
(1.06513 0.000455985 0)
(1.06497 0.000554347 0)
(1.06507 0.000543013 0)
(1.06505 0.000475621 0)
(1.06507 0.000408173 0)
(1.06507 0.00034445 0)
(1.06508 0.000291298 0)
(1.06508 0.00024659 0)
(1.06509 0.000209764 0)
(1.06509 0.000179164 0)
(1.06509 0.00015381 0)
(1.06509 0.000132539 0)
(1.06509 0.000114608 0)
(1.06509 9.92725e-05 0)
(1.06509 8.61865e-05 0)
(1.06509 7.46668e-05 0)
(1.06508 6.47112e-05 0)
(1.06508 5.59012e-05 0)
(1.06508 4.82541e-05 0)
(1.06508 4.15173e-05 0)
(1.06508 3.57198e-05 0)
(1.06508 3.05768e-05 0)
(1.06507 2.62122e-05 0)
(1.06507 2.23354e-05 0)
(1.06507 1.91295e-05 0)
(1.06507 1.62626e-05 0)
(1.06507 1.39506e-05 0)
(1.06507 1.19035e-05 0)
(1.06507 1.0226e-05 0)
(1.06507 8.74956e-06 0)
(1.06507 7.58547e-06 0)
(1.06507 6.48802e-06 0)
(1.06506 5.70105e-06 0)
(1.06506 4.85284e-06 0)
(1.06506 4.27511e-06 0)
(1.06506 3.63822e-06 0)
(1.06506 3.23911e-06 0)
(1.06506 2.79786e-06 0)
(1.06506 2.51185e-06 0)
(1.06506 2.18509e-06 0)
(1.06506 2.01579e-06 0)
(1.06506 1.76872e-06 0)
(1.06506 1.7118e-06 0)
(1.06506 1.53693e-06 0)
(1.06506 1.55382e-06 0)
(1.06506 1.46193e-06 0)
(1.06506 1.53397e-06 0)
(1.06506 1.49815e-06 0)
(1.06506 1.58259e-06 0)
(1.06506 1.53428e-06 0)
(1.06506 1.60324e-06 0)
(1.06506 1.53247e-06 0)
(1.06506 1.5855e-06 0)
(1.06506 1.49017e-06 0)
(1.06506 1.50647e-06 0)
(1.06506 1.39579e-06 0)
(1.06506 1.40348e-06 0)
(1.06506 1.30627e-06 0)
(1.06506 1.33134e-06 0)
(1.06506 1.2471e-06 0)
(1.06506 1.29442e-06 0)
(1.06506 1.23585e-06 0)
(1.06506 1.31678e-06 0)
(1.06506 1.29977e-06 0)
(1.06506 1.41572e-06 0)
(1.06506 1.43419e-06 0)
(1.06506 1.54046e-06 0)
(1.06506 1.54696e-06 0)
(1.06506 1.62835e-06 0)
(1.06506 1.60583e-06 0)
(1.06506 1.65979e-06 0)
(1.06506 1.63191e-06 0)
(1.06506 1.70677e-06 0)
(1.06506 1.72069e-06 0)
(1.06506 1.85253e-06 0)
(1.06506 1.96091e-06 0)
(1.06506 2.21279e-06 0)
(1.06506 2.52371e-06 0)
(1.06506 3.07523e-06 0)
(1.06506 3.81894e-06 0)
(1.06506 4.98476e-06 0)
(1.06506 6.55353e-06 0)
(1.06506 8.73002e-06 0)
(1.06506 1.16945e-05 0)
(1.06506 1.553e-05 0)
(1.06506 2.12306e-05 0)
(1.06506 2.86103e-05 0)
(1.06505 5.04236e-05 0)
(1.06503 0.000104282 0)
(1.06499 0.000348208 0)
(1.06489 0.000942818 0)
(1.06481 0.00282186 0)
(1.06409 0.00453647 0)
(0.999679 0.0805227 0)
(1.07353 0.0496978 0)
(1.05651 0.0200901 0)
(1.06874 0.00291375 0)
(1.06345 -0.000772952 0)
(1.06563 -0.000630781 0)
(1.06465 2.64115e-05 0)
(1.06515 0.000439382 0)
(1.06504 0.000540598 0)
(1.0652 0.000530295 0)
(1.06522 0.000465352 0)
(1.06529 0.000399556 0)
(1.06533 0.000337373 0)
(1.06536 0.000285337 0)
(1.06539 0.000241572 0)
(1.06542 0.000205512 0)
(1.06544 0.000175549 0)
(1.06546 0.000150722 0)
(1.06547 0.000129887 0)
(1.06548 0.000112317 0)
(1.06549 9.73022e-05 0)
(1.0655 8.44757e-05 0)
(1.0655 7.31659e-05 0)
(1.06551 6.33902e-05 0)
(1.06551 5.46947e-05 0)
(1.06552 4.71597e-05 0)
(1.06552 4.04879e-05 0)
(1.06552 3.47546e-05 0)
(1.06552 2.96645e-05 0)
(1.06553 2.53317e-05 0)
(1.06553 2.14943e-05 0)
(1.06553 1.82947e-05 0)
(1.06553 1.54347e-05 0)
(1.06553 1.31295e-05 0)
(1.06553 1.10821e-05 0)
(1.06553 9.42976e-06 0)
(1.06553 7.94837e-06 0)
(1.06553 6.79985e-06 0)
(1.06553 5.70513e-06 0)
(1.06553 4.92374e-06 0)
(1.06553 4.09516e-06 0)
(1.06553 3.52603e-06 0)
(1.06553 2.90044e-06 0)
(1.06553 2.49307e-06 0)
(1.06553 2.03675e-06 0)
(1.06553 1.74828e-06 0)
(1.06553 1.3994e-06 0)
(1.06553 1.2236e-06 0)
(1.06553 9.54646e-07 0)
(1.06553 8.92686e-07 0)
(1.06553 7.15741e-07 0)
(1.06553 7.32461e-07 0)
(1.06553 6.41641e-07 0)
(1.06553 7.18437e-07 0)
(1.06553 6.83538e-07 0)
(1.06553 7.76617e-07 0)
(1.06553 7.26869e-07 0)
(1.06553 8.00648e-07 0)
(1.06553 7.26447e-07 0)
(1.06553 7.81276e-07 0)
(1.06553 6.84127e-07 0)
(1.06553 6.98393e-07 0)
(1.06553 5.80949e-07 0)
(1.06553 5.8433e-07 0)
(1.06553 4.80752e-07 0)
(1.06553 5.08536e-07 0)
(1.06553 4.21056e-07 0)
(1.06553 4.73396e-07 0)
(1.06553 4.1284e-07 0)
(1.06553 4.98731e-07 0)
(1.06553 4.80144e-07 0)
(1.06553 5.98592e-07 0)
(1.06553 6.18739e-07 0)
(1.06553 7.27903e-07 0)
(1.06553 7.34972e-07 0)
(1.06553 8.19113e-07 0)
(1.06553 7.95903e-07 0)
(1.06553 8.53174e-07 0)
(1.06553 8.21747e-07 0)
(1.06553 8.97604e-07 0)
(1.06553 9.05247e-07 0)
(1.06553 1.03727e-06 0)
(1.06553 1.14722e-06 0)
(1.06553 1.40316e-06 0)
(1.06553 1.71458e-06 0)
(1.06553 2.26524e-06 0)
(1.06553 3.00184e-06 0)
(1.06553 4.12442e-06 0)
(1.06553 5.65488e-06 0)
(1.06553 7.80088e-06 0)
(1.06553 1.07655e-05 0)
(1.06553 1.46986e-05 0)
(1.06553 2.07426e-05 0)
(1.06553 2.8882e-05 0)
(1.06552 5.24917e-05 0)
(1.06551 0.000108604 0)
(1.06549 0.000357836 0)
(1.06548 0.000955197 0)
(1.06551 0.00286046 0)
(1.06553 0.00458628 0)
(0.996726 0.0695807 0)
(1.06976 0.0456022 0)
(1.05602 0.0189521 0)
(1.06854 0.00280562 0)
(1.06338 -0.000719887 0)
(1.06545 -0.000621011 0)
(1.06445 1.82879e-05 0)
(1.06497 0.000414061 0)
(1.0649 0.000515052 0)
(1.06511 0.000505982 0)
(1.06518 0.000444812 0)
(1.06528 0.000382167 0)
(1.06535 0.000322935 0)
(1.06542 0.000273221 0)
(1.06547 0.000231406 0)
(1.06551 0.000196946 0)
(1.06555 0.00016831 0)
(1.06558 0.000144582 0)
(1.06561 0.000124663 0)
(1.06563 0.000107854 0)
(1.06565 9.35021e-05 0)
(1.06567 8.12339e-05 0)
(1.06568 7.03937e-05 0)
(1.06569 6.10344e-05 0)
(1.0657 5.26631e-05 0)
(1.06571 4.54231e-05 0)
(1.06572 3.89808e-05 0)
(1.06572 3.34473e-05 0)
(1.06573 2.85378e-05 0)
(1.06573 2.43407e-05 0)
(1.06574 2.06359e-05 0)
(1.06574 1.75252e-05 0)
(1.06574 1.47381e-05 0)
(1.06574 1.24996e-05 0)
(1.06574 1.04943e-05 0)
(1.06575 8.90149e-06 0)
(1.06575 7.44291e-06 0)
(1.06575 6.32519e-06 0)
(1.06575 5.25225e-06 0)
(1.06575 4.48923e-06 0)
(1.06575 3.69343e-06 0)
(1.06575 3.14089e-06 0)
(1.06575 2.53244e-06 0)
(1.06575 2.13486e-06 0)
(1.06575 1.6839e-06 0)
(1.06575 1.40901e-06 0)
(1.06575 1.05756e-06 0)
(1.06575 8.82201e-07 0)
(1.06575 6.03393e-07 0)
(1.06575 5.37009e-07 0)
(1.06575 3.59449e-07 0)
(1.06575 3.79295e-07 0)
(1.06575 2.91791e-07 0)
(1.06575 3.72867e-07 0)
(1.06575 3.37662e-07 0)
(1.06575 4.39068e-07 0)
(1.06575 3.88083e-07 0)
(1.06575 4.68522e-07 0)
(1.06575 3.90525e-07 0)
(1.06575 4.46753e-07 0)
(1.06575 3.47126e-07 0)
(1.06575 3.60202e-07 0)
(1.06575 2.38351e-07 0)
(1.06575 2.38512e-07 0)
(1.06575 1.29758e-07 0)
(1.06575 1.59442e-07 0)
(1.06575 6.99215e-08 0)
(1.06575 1.26558e-07 0)
(1.06575 6.56729e-08 0)
(1.06575 1.5521e-07 0)
(1.06575 1.3527e-07 0)
(1.06575 2.53569e-07 0)
(1.06575 2.74123e-07 0)
(1.06575 3.84513e-07 0)
(1.06575 3.91772e-07 0)
(1.06575 4.78315e-07 0)
(1.06575 4.53661e-07 0)
(1.06575 5.14794e-07 0)
(1.06575 4.7895e-07 0)
(1.06575 5.57005e-07 0)
(1.06575 5.58241e-07 0)
(1.06575 6.87707e-07 0)
(1.06575 7.92695e-07 0)
(1.06575 1.04201e-06 0)
(1.06575 1.33769e-06 0)
(1.06575 1.85829e-06 0)
(1.06575 2.55946e-06 0)
(1.06575 3.63336e-06 0)
(1.06575 5.104e-06 0)
(1.06575 7.1916e-06 0)
(1.06575 1.01019e-05 0)
(1.06576 1.40353e-05 0)
(1.06576 2.02361e-05 0)
(1.06576 2.8833e-05 0)
(1.06576 5.33644e-05 0)
(1.06576 0.000109873 0)
(1.06575 0.000356859 0)
(1.06583 0.000940529 0)
(1.06596 0.00281306 0)
(1.06669 0.00449749 0)
(0.994315 0.0595377 0)
(1.06651 0.041059 0)
(1.05549 0.0174649 0)
(1.06827 0.00263455 0)
(1.06324 -0.000658368 0)
(1.06521 -0.00059461 0)
(1.06417 1.07411e-05 0)