/*--------------------------------*- C++ -*----------------------------------*\
| =========                 |                                                 |
| \\      /  F ield         | OpenFOAM: The Open Source CFD Toolbox           |
|  \\    /   O peration     | Version:  v1906                                 |
|   \\  /    A nd           | Web:      www.OpenFOAM.com                      |
|    \\/     M anipulation  |                                                 |
\*---------------------------------------------------------------------------*/
FoamFile
{
    version     2.0;
    format      ascii;
    class       volVectorField;
    location    "2";
    object      U;
}
// * * * * * * * * * * * * * * * * * * * * * * * * * * * * * * * * * * * * * //

dimensions      [0 1 -1 0 0 0 0];


internalField   nonuniform List<vector> 
4000
(
(0.486545 0.0295877 0)
(0.550196 -0.00143106 0)
(0.507318 -0.0021733 0)
(0.530495 -0.00196804 0)
(0.515384 -0.00213446 0)
(0.524081 -0.00203739 0)
(0.518103 -0.00210872 0)
(0.521453 -0.00207006 0)
(0.519057 -0.00209935 0)
(0.520338 -0.00208429 0)
(0.519369 -0.00209623 0)
(0.519854 -0.00209061 0)
(0.51946 -0.00209547 0)
(0.519643 -0.0020934 0)
(0.519483 -0.00209542 0)
(0.519551 -0.00209468 0)
(0.519485 -0.00209552 0)
(0.519511 -0.00209526 0)
(0.519484 -0.00209561 0)
(0.519493 -0.00209552 0)
(0.519482 -0.00209567 0)
(0.519486 -0.00209564 0)
(0.519481 -0.0020957 0)
(0.519483 -0.00209569 0)
(0.519481 -0.00209572 0)
(0.519481 -0.00209572 0)
(0.519481 -0.00209573 0)
(0.519481 -0.00209573 0)
(0.519481 -0.00209573 0)
(0.519481 -0.00209573 0)
(0.51948 -0.00209573 0)
(0.51948 -0.00209573 0)
(0.51948 -0.00209573 0)
(0.51948 -0.00209573 0)
(0.51948 -0.00209573 0)
(0.51948 -0.00209573 0)
(0.51948 -0.00209573 0)
(0.51948 -0.00209573 0)
(0.51948 -0.00209573 0)
(0.51948 -0.00209573 0)
(0.51948 -0.00209573 0)
(0.51948 -0.00209573 0)
(0.51948 -0.00209573 0)
(0.51948 -0.00209573 0)
(0.51948 -0.00209573 0)
(0.51948 -0.00209573 0)
(0.51948 -0.00209573 0)
(0.51948 -0.00209573 0)
(0.51948 -0.00209573 0)
(0.51948 -0.00209573 0)
(0.51948 -0.00209573 0)
(0.51948 -0.00209573 0)
(0.51948 -0.00209573 0)
(0.51948 -0.00209573 0)
(0.51948 -0.00209573 0)
(0.51948 -0.00209573 0)
(0.51948 -0.00209573 0)
(0.51948 -0.00209573 0)
(0.51948 -0.00209573 0)
(0.51948 -0.00209573 0)
(0.51948 -0.00209573 0)
(0.51948 -0.00209573 0)
(0.51948 -0.00209573 0)
(0.51948 -0.00209573 0)
(0.51948 -0.00209573 0)
(0.51948 -0.00209573 0)
(0.51948 -0.00209573 0)
(0.51948 -0.00209573 0)
(0.51948 -0.00209573 0)
(0.51948 -0.00209573 0)
(0.51948 -0.00209573 0)
(0.51948 -0.00209573 0)
(0.51948 -0.00209573 0)
(0.51948 -0.00209573 0)
(0.51948 -0.00209573 0)
(0.51948 -0.00209573 0)
(0.51948 -0.00209573 0)
(0.51948 -0.00209573 0)
(0.51948 -0.00209573 0)
(0.51948 -0.00209573 0)
(0.51948 -0.00209573 0)
(0.51948 -0.00209573 0)
(0.51948 -0.00209573 0)
(0.519481 -0.00209573 0)
(0.519481 -0.00209573 0)
(0.519481 -0.00209573 0)
(0.519481 -0.00209573 0)
(0.519481 -0.00209573 0)
(0.51948 -0.00209573 0)
(0.519481 -0.00209572 0)
(0.51948 -0.00209571 0)
(0.51948 -0.00209571 0)
(0.519479 -0.00209567 0)
(0.519479 -0.00209564 0)
(0.519475 -0.00209552 0)
(0.519471 -0.00209551 0)
(0.519467 -0.00209521 0)
(0.519444 -0.00209629 0)
(0.519495 -0.00208525 0)
(0.519166 -0.00211064 0)
(0.803149 0.0707559 0)
(0.91549 0.00206274 0)
(0.844694 -0.000815962 0)
(0.884046 0.000294685 0)
(0.858564 -0.000547846 0)
(0.873387 -4.33723e-05 0)
(0.863325 -0.000400174 0)
(0.869045 -0.000201158 0)
(0.865018 -0.000347206 0)
(0.867211 -0.000269588 0)
(0.865586 -0.000329269 0)
(0.866419 -0.000300723 0)
(0.865759 -0.000324665 0)
(0.866072 -0.000314181 0)
(0.865803 -0.000324124 0)
(0.86592 -0.000320342 0)
(0.865809 -0.000324497 0)
(0.865853 -0.00032316 0)
(0.865807 -0.000324899 0)
(0.865823 -0.00032444 0)
(0.865805 -0.000325169 0)
(0.865811 -0.000325016 0)
(0.865803 -0.00032532 0)
(0.865805 -0.000325265 0)
(0.865802 -0.000325391 0)
(0.865803 -0.000325372 0)
(0.865801 -0.000325425 0)
(0.865802 -0.000325421 0)
(0.865801 -0.000325444 0)
(0.865801 -0.000325442 0)
(0.865801 -0.000325452 0)
(0.865801 -0.000325448 0)
(0.865801 -0.000325453 0)
(0.865801 -0.00032545 0)
(0.865801 -0.000325453 0)
(0.865801 -0.000325452 0)
(0.865801 -0.000325455 0)
(0.865801 -0.000325453 0)
(0.865801 -0.000325456 0)
(0.865801 -0.000325453 0)
(0.865801 -0.000325456 0)
(0.865801 -0.000325454 0)
(0.865801 -0.000325457 0)
(0.865801 -0.000325456 0)
(0.865801 -0.000325458 0)
(0.865801 -0.000325456 0)
(0.865801 -0.000325458 0)
(0.865801 -0.000325455 0)
(0.865801 -0.000325458 0)
(0.865801 -0.000325455 0)
(0.865801 -0.000325456 0)
(0.865801 -0.000325454 0)
(0.865801 -0.000325456 0)
(0.865801 -0.000325454 0)
(0.865801 -0.000325457 0)
(0.865801 -0.000325458 0)
(0.865801 -0.000325461 0)
(0.865801 -0.00032546 0)
(0.865801 -0.000325461 0)
(0.865801 -0.000325456 0)
(0.865801 -0.000325457 0)
(0.865801 -0.000325453 0)
(0.865801 -0.000325454 0)
(0.865801 -0.000325453 0)
(0.865801 -0.000325455 0)
(0.865801 -0.000325455 0)
(0.865801 -0.000325458 0)
(0.865801 -0.000325456 0)
(0.865801 -0.000325458 0)
(0.865801 -0.000325455 0)
(0.865801 -0.000325455 0)
(0.865801 -0.000325453 0)
(0.865801 -0.000325455 0)
(0.865801 -0.000325454 0)
(0.865801 -0.000325455 0)
(0.865801 -0.000325453 0)
(0.865801 -0.000325454 0)
(0.865801 -0.000325452 0)
(0.865801 -0.000325453 0)
(0.865801 -0.000325451 0)
(0.865801 -0.000325451 0)
(0.865801 -0.00032545 0)
(0.865801 -0.000325452 0)
(0.865801 -0.000325451 0)
(0.865801 -0.000325451 0)
(0.865801 -0.000325451 0)
(0.865801 -0.000325448 0)
(0.865801 -0.000325446 0)
(0.865801 -0.000325436 0)
(0.865801 -0.000325429 0)
(0.865801 -0.000325395 0)
(0.865801 -0.000325367 0)
(0.865799 -0.000325249 0)
(0.865798 -0.00032514 0)
(0.865793 -0.000324707 0)
(0.865787 -0.000324649 0)
(0.865781 -0.000323122 0)
(0.865737 -0.000326509 0)
(0.865804 -0.000280621 0)
(0.864669 -0.000284517 0)
(0.904921 0.0785286 0)
(1.03658 0.00397472 0)
(0.956012 -0.000256931 0)
(1.00199 0.00149945 0)
(0.97242 8.69397e-05 0)
(0.989814 0.000929152 0)
(0.978159 0.000319651 0)
(0.984887 0.000649466 0)
(0.980234 0.000405368 0)
(0.982822 0.000532361 0)
(0.980947 0.000432594 0)
(0.981934 0.000479142 0)
(0.981174 0.000438484 0)
(0.981547 0.000455288 0)
(0.981237 0.000438264 0)
(0.981376 0.000444198 0)
(0.981249 0.000436969 0)
(0.981301 0.000438983 0)
(0.981248 0.000435916 0)
(0.981267 0.000436566 0)
(0.981246 0.000435264 0)
(0.981252 0.000435461 0)
(0.981244 0.00043491 0)
(0.981246 0.000434973 0)
(0.981242 0.00043474 0)
(0.981243 0.000434757 0)
(0.981242 0.000434657 0)
(0.981242 0.000434659 0)
(0.981241 0.000434612 0)
(0.981241 0.000434616 0)
(0.981241 0.000434593 0)
(0.981241 0.000434601 0)
(0.981241 0.00043459 0)
(0.981241 0.000434595 0)
(0.981241 0.000434587 0)
(0.981241 0.00043459 0)
(0.981241 0.000434582 0)
(0.981241 0.000434587 0)
(0.981241 0.000434579 0)
(0.981241 0.000434587 0)
(0.981241 0.00043458 0)
(0.981241 0.000434586 0)
(0.981241 0.00043458 0)
(0.981241 0.000434585 0)
(0.981241 0.00043458 0)
(0.981241 0.000434587 0)
(0.981241 0.000434581 0)
(0.981241 0.000434588 0)
(0.981241 0.000434581 0)
(0.981241 0.000434587 0)
(0.981241 0.000434581 0)
(0.981241 0.000434587 0)
(0.981241 0.00043458 0)
(0.981241 0.000434586 0)
(0.981241 0.000434577 0)
(0.981241 0.000434579 0)
(0.981241 0.000434571 0)
(0.981241 0.000434576 0)
(0.981241 0.000434571 0)
(0.981241 0.000434582 0)
(0.981241 0.00043458 0)
(0.981241 0.00043459 0)
(0.981241 0.000434586 0)
(0.981241 0.00043459 0)
(0.981241 0.000434583 0)
(0.981241 0.000434585 0)
(0.981241 0.000434577 0)
(0.981241 0.000434583 0)
(0.981241 0.000434578 0)
(0.981241 0.000434585 0)
(0.981241 0.000434583 0)
(0.981241 0.000434588 0)
(0.981241 0.000434584 0)
(0.981241 0.000434588 0)
(0.981241 0.000434582 0)
(0.981241 0.000434588 0)
(0.981241 0.000434585 0)
(0.981241 0.00043459 0)
(0.981241 0.000434587 0)
(0.981241 0.000434592 0)
(0.981241 0.00043459 0)
(0.981241 0.000434595 0)
(0.981241 0.000434591 0)
(0.981241 0.000434593 0)
(0.981241 0.000434593 0)
(0.981241 0.000434595 0)
(0.981241 0.000434598 0)
(0.981241 0.000434604 0)
(0.981241 0.000434621 0)
(0.981241 0.000434637 0)
(0.981241 0.000434697 0)
(0.981241 0.000434759 0)
(0.981239 0.000434978 0)
(0.981238 0.000435199 0)
(0.981234 0.000436042 0)
(0.981227 0.000436161 0)
(0.98122 0.000439819 0)
(0.981166 0.000433864 0)
(0.98123 0.000531223 0)
(0.979624 0.000668105 0)
(0.936402 0.074507 0)
(1.07677 0.0042317 0)
(0.991954 -0.000482718 0)
(1.04144 0.00155973 0)
(1.00982 -0.000168398 0)
(1.02863 0.000862463 0)
(1.01619 9.69116e-05 0)
(1.02348 0.000507487 0)
(1.01853 0.00019871 0)
(1.02134 0.000352937 0)
(1.01935 0.00022828 0)
(1.02043 0.000284795 0)
(1.01963 0.000232933 0)
(1.02003 0.000252989 0)
(1.01971 0.000230997 0)
(1.01986 0.000237801 0)
(1.01973 0.000228394 0)
(1.01978 0.000230573 0)
(1.01973 0.000226522 0)
(1.01975 0.000227153 0)
(1.01973 0.00022541 0)
(1.01973 0.000225563 0)
(1.01972 0.000224817 0)
(1.01973 0.000224851 0)
(1.01972 0.000224528 0)
(1.01972 0.000224528 0)
(1.01972 0.000224387 0)
(1.01972 0.00022438 0)
(1.01972 0.000224311 0)
(1.01972 0.000224311 0)
(1.01972 0.000224278 0)
(1.01972 0.000224288 0)
(1.01972 0.000224272 0)
(1.01972 0.000224278 0)
(1.01972 0.000224264 0)
(1.01972 0.000224268 0)
(1.01972 0.000224254 0)
(1.01972 0.000224262 0)
(1.01972 0.00022425 0)
(1.01972 0.000224262 0)
(1.01972 0.000224252 0)
(1.01972 0.000224261 0)
(1.01972 0.000224253 0)
(1.01972 0.000224263 0)
(1.01972 0.000224256 0)
(1.01972 0.000224269 0)
(1.01972 0.000224258 0)
(1.01972 0.00022427 0)
(1.01972 0.000224257 0)
(1.01972 0.000224266 0)
(1.01972 0.000224255 0)
(1.01972 0.000224264 0)
(1.01972 0.000224252 0)
(1.01972 0.000224261 0)
(1.01972 0.000224248 0)
(1.01972 0.000224252 0)
(1.01972 0.000224238 0)
(1.01972 0.000224247 0)
(1.01972 0.00022424 0)
(1.01972 0.000224257 0)
(1.01972 0.000224254 0)
(1.01972 0.000224269 0)
(1.01972 0.000224263 0)
(1.01972 0.000224271 0)
(1.01972 0.000224258 0)
(1.01972 0.000224262 0)
(1.01972 0.00022425 0)
(1.01972 0.000224259 0)
(1.01972 0.000224251 0)
(1.01972 0.000224262 0)
(1.01972 0.000224258 0)
(1.01972 0.000224267 0)
(1.01972 0.000224259 0)
(1.01972 0.000224265 0)
(1.01972 0.000224255 0)
(1.01972 0.000224263 0)
(1.01972 0.000224258 0)
(1.01972 0.000224266 0)
(1.01972 0.000224263 0)
(1.01972 0.000224271 0)
(1.01972 0.000224268 0)
(1.01972 0.000224275 0)
(1.01972 0.000224269 0)
(1.01972 0.000224273 0)
(1.01972 0.000224272 0)
(1.01972 0.000224276 0)
(1.01972 0.00022428 0)
(1.01972 0.00022429 0)
(1.01972 0.000224313 0)
(1.01972 0.000224338 0)
(1.01972 0.000224423 0)
(1.01972 0.00022452 0)
(1.01972 0.000224838 0)
(1.01972 0.000225168 0)
(1.01971 0.000226429 0)
(1.01971 0.000226594 0)
(1.0197 0.000232903 0)
(1.01964 0.000224649 0)
(1.0197 0.000385559 0)
(1.01803 0.000699627 0)
(0.944945 0.0692251 0)
(1.0901 0.0042139 0)
(1.00283 -0.000657332 0)
(1.05471 0.00152487 0)
(1.02174 -0.000374299 0)
(1.04157 0.000764821 0)
(1.02861 -8.80958e-05 0)
(1.03633 0.000371046 0)
(1.03118 1.88808e-05 0)
(1.03416 0.000192475 0)
(1.0321 4.84451e-05 0)
(1.03325 0.000112395 0)
(1.03242 5.12114e-05 0)
(1.03286 7.39025e-05 0)
(1.03252 4.74273e-05 0)
(1.03268 5.45586e-05 0)
(1.03255 4.35059e-05 0)
(1.03261 4.56471e-05 0)
(1.03255 4.08251e-05 0)
(1.03257 4.13601e-05 0)
(1.03255 3.92581e-05 0)
(1.03256 3.93358e-05 0)
(1.03255 3.84196e-05 0)
(1.03255 3.84109e-05 0)
(1.03255 3.80109e-05 0)
(1.03255 3.7987e-05 0)
(1.03255 3.78091e-05 0)
(1.03255 3.77914e-05 0)
(1.03255 3.77009e-05 0)
(1.03255 3.76978e-05 0)
(1.03255 3.76535e-05 0)
(1.03255 3.76651e-05 0)
(1.03255 3.76429e-05 0)
(1.03255 3.76495e-05 0)
(1.03255 3.763e-05 0)
(1.03255 3.76356e-05 0)
(1.03255 3.76153e-05 0)
(1.03255 3.76253e-05 0)
(1.03255 3.76095e-05 0)
(1.03255 3.7626e-05 0)
(1.03255 3.76129e-05 0)
(1.03255 3.76265e-05 0)
(1.03255 3.76162e-05 0)
(1.03255 3.76314e-05 0)
(1.03255 3.76228e-05 0)
(1.03255 3.76416e-05 0)
(1.03255 3.76277e-05 0)
(1.03255 3.76425e-05 0)
(1.03255 3.76253e-05 0)
(1.03255 3.76357e-05 0)
(1.03255 3.76193e-05 0)
(1.03255 3.76303e-05 0)
(1.03255 3.76139e-05 0)
(1.03255 3.76263e-05 0)
(1.03255 3.76089e-05 0)
(1.03255 3.76143e-05 0)
(1.03255 3.75959e-05 0)
(1.03255 3.76079e-05 0)
(1.03255 3.75981e-05 0)
(1.03255 3.7622e-05 0)
(1.03255 3.76184e-05 0)
(1.03255 3.7639e-05 0)
(1.03255 3.76314e-05 0)
(1.03255 3.76416e-05 0)
(1.03255 3.76247e-05 0)
(1.03255 3.76302e-05 0)
(1.03255 3.76134e-05 0)
(1.03255 3.76255e-05 0)
(1.03255 3.76151e-05 0)
(1.03255 3.76287e-05 0)
(1.03255 3.76228e-05 0)
(1.03255 3.76348e-05 0)
(1.03255 3.7624e-05 0)
(1.03255 3.76312e-05 0)
(1.03255 3.76174e-05 0)
(1.03255 3.76274e-05 0)
(1.03255 3.76208e-05 0)
(1.03255 3.76316e-05 0)
(1.03255 3.76264e-05 0)
(1.03255 3.76386e-05 0)
(1.03255 3.76341e-05 0)
(1.03255 3.76435e-05 0)
(1.03255 3.76358e-05 0)
(1.03255 3.76412e-05 0)
(1.03255 3.764e-05 0)
(1.03255 3.76462e-05 0)
(1.03255 3.76495e-05 0)
(1.03255 3.76633e-05 0)
(1.03255 3.7691e-05 0)
(1.03255 3.77254e-05 0)
(1.03255 3.78315e-05 0)
(1.03255 3.796e-05 0)
(1.03255 3.83626e-05 0)
(1.03255 3.87882e-05 0)
(1.03254 4.04344e-05 0)
(1.03254 4.0616e-05 0)
(1.03253 4.97758e-05 0)
(1.03247 3.94743e-05 0)
(1.03253 0.000263157 0)
(1.03101 0.000725792 0)
(0.946112 0.0642373 0)
(1.09449 0.0042488 0)
(1.00542 -0.000680364 0)
(1.05923 0.00159121 0)
(1.02521 -0.000426786 0)
(1.04589 0.000788034 0)
(1.03252 -0.000122203 0)
(1.04058 0.000363503 0)
(1.03528 -1.17014e-05 0)
(1.03841 0.000173974 0)
(1.0363 1.74186e-05 0)
(1.03751 8.54895e-05 0)
(1.03666 1.84139e-05 0)
(1.03712 4.22156e-05 0)
(1.03678 1.29904e-05 0)
(1.03696 2.02432e-05 0)
(1.03682 7.89362e-06 0)
(1.03688 9.93114e-06 0)
(1.03682 4.46454e-06 0)
(1.03685 4.88334e-06 0)
(1.03683 2.44544e-06 0)
(1.03683 2.43737e-06 0)
(1.03683 1.32849e-06 0)
(1.03683 1.26891e-06 0)
(1.03682 8.02593e-07 0)
(1.03683 7.54224e-07 0)
(1.03682 5.44479e-07 0)
(1.03682 5.14879e-07 0)
(1.03682 4.05395e-07 0)
(1.03682 3.97264e-07 0)
(1.03682 3.43616e-07 0)
(1.03682 3.55126e-07 0)
(1.03682 3.28409e-07 0)
(1.03682 3.34782e-07 0)
(1.03682 3.10167e-07 0)
(1.03682 3.16606e-07 0)
(1.03682 2.91166e-07 0)
(1.03682 3.02351e-07 0)
(1.03682 2.834e-07 0)
(1.03682 3.03552e-07 0)
(1.03682 2.8828e-07 0)
(1.03682 3.05082e-07 0)
(1.03682 2.93869e-07 0)
(1.03682 3.1396e-07 0)
(1.03682 3.04987e-07 0)
(1.03682 3.29125e-07 0)
(1.03682 3.12462e-07 0)
(1.03682 3.29899e-07 0)
(1.03682 3.08411e-07 0)
(1.03682 3.19399e-07 0)
(1.03682 2.97931e-07 0)
(1.03682 3.10289e-07 0)
(1.03682 2.90085e-07 0)
(1.03682 3.05038e-07 0)
(1.03682 2.84442e-07 0)
(1.03682 2.91272e-07 0)
(1.03682 2.6927e-07 0)
(1.03682 2.83849e-07 0)
(1.03682 2.72186e-07 0)
(1.03682 3.01304e-07 0)
(1.03682 2.97647e-07 0)
(1.03682 3.23054e-07 0)
(1.03682 3.14497e-07 0)
(1.03682 3.27177e-07 0)
(1.03682 3.06352e-07 0)
(1.03682 3.12765e-07 0)
(1.03682 2.91828e-07 0)
(1.03682 3.0599e-07 0)
(1.03682 2.93232e-07 0)
(1.03682 3.09094e-07 0)
(1.03682 3.01553e-07 0)
(1.03682 3.15825e-07 0)
(1.03682 3.02433e-07 0)
(1.03682 3.10851e-07 0)
(1.03682 2.93652e-07 0)
(1.03682 3.05052e-07 0)
(1.03682 2.97191e-07 0)
(1.03682 3.10271e-07 0)
(1.03682 3.03837e-07 0)
(1.03682 3.18852e-07 0)
(1.03682 3.13692e-07 0)
(1.03682 3.25104e-07 0)
(1.03682 3.16193e-07 0)
(1.03682 3.22657e-07 0)
(1.03682 3.21077e-07 0)
(1.03682 3.28888e-07 0)
(1.03682 3.317e-07 0)
(1.03682 3.48485e-07 0)
(1.03682 3.80244e-07 0)
(1.03682 4.2213e-07 0)
(1.03682 5.45436e-07 0)
(1.03682 6.99884e-07 0)
(1.03682 1.17307e-06 0)
(1.03682 1.69649e-06 0)
(1.03682 3.74408e-06 0)
(1.03681 3.92138e-06 0)
(1.03681 1.59681e-05 0)
(1.03675 3.69059e-06 0)
(1.03681 0.00027796 0)
(1.03554 0.000851879 0)
(0.945038 0.0593151 0)
(1.09589 0.00424909 0)
(1.00533 -0.000654545 0)
(1.06082 0.00166278 0)
(1.02588 -0.000425858 0)
(1.04731 0.000835743 0)
(1.03359 -0.000117467 0)
(1.04197 0.000387547 0)
(1.03654 -3.97766e-06 0)
(1.0398 0.000187591 0)
(1.03764 2.43812e-05 0)
(1.03891 9.33151e-05 0)
(1.03804 2.3802e-05 0)
(1.03853 4.71926e-05 0)
(1.03819 1.70033e-05 0)
(1.03837 2.42208e-05 0)
(1.03823 1.09138e-05 0)
(1.0383 1.2805e-05 0)
(1.03825 6.82363e-06 0)
(1.03827 7.11767e-06 0)
(1.03825 4.37264e-06 0)
(1.03826 4.27294e-06 0)
(1.03825 3.00086e-06 0)
(1.03825 2.89447e-06 0)
(1.03825 2.37396e-06 0)
(1.03825 2.30174e-06 0)
(1.03825 2.06628e-06 0)
(1.03825 2.02519e-06 0)
(1.03825 1.89925e-06 0)
(1.03825 1.88586e-06 0)
(1.03825 1.82422e-06 0)
(1.03825 1.83477e-06 0)
(1.03825 1.80462e-06 0)
(1.03825 1.81059e-06 0)
(1.03825 1.78174e-06 0)
(1.03825 1.78904e-06 0)
(1.03825 1.75936e-06 0)
(1.03825 1.77077e-06 0)
(1.03825 1.74932e-06 0)
(1.03825 1.77233e-06 0)
(1.03825 1.75529e-06 0)
(1.03825 1.77455e-06 0)
(1.03825 1.76321e-06 0)
(1.03825 1.7877e-06 0)
(1.03825 1.77912e-06 0)
(1.03825 1.80818e-06 0)
(1.03825 1.7894e-06 0)
(1.03825 1.80862e-06 0)
(1.03825 1.78353e-06 0)
(1.03825 1.79407e-06 0)
(1.03825 1.76794e-06 0)
(1.03825 1.7809e-06 0)
(1.03825 1.75762e-06 0)
(1.03825 1.77468e-06 0)
(1.03825 1.75185e-06 0)
(1.03825 1.75997e-06 0)
(1.03825 1.73514e-06 0)
(1.03825 1.75188e-06 0)
(1.03825 1.73889e-06 0)
(1.03825 1.77226e-06 0)
(1.03825 1.76895e-06 0)
(1.03825 1.79835e-06 0)
(1.03825 1.7894e-06 0)
(1.03825 1.80412e-06 0)
(1.03825 1.78017e-06 0)
(1.03825 1.7869e-06 0)
(1.03825 1.7624e-06 0)
(1.03825 1.77785e-06 0)
(1.03825 1.76296e-06 0)
(1.03825 1.78022e-06 0)
(1.03825 1.77118e-06 0)
(1.03825 1.78727e-06 0)
(1.03825 1.77197e-06 0)
(1.03825 1.78124e-06 0)
(1.03825 1.76146e-06 0)
(1.03825 1.77397e-06 0)
(1.03825 1.76521e-06 0)
(1.03825 1.78019e-06 0)
(1.03825 1.77277e-06 0)
(1.03825 1.78994e-06 0)
(1.03825 1.78435e-06 0)
(1.03825 1.7974e-06 0)
(1.03825 1.78769e-06 0)
(1.03825 1.79505e-06 0)
(1.03825 1.79313e-06 0)
(1.03825 1.8021e-06 0)
(1.03825 1.80423e-06 0)
(1.03825 1.82325e-06 0)
(1.03825 1.85796e-06 0)
(1.03825 1.9059e-06 0)
(1.03825 2.0426e-06 0)
(1.03825 2.21693e-06 0)
(1.03825 2.7452e-06 0)
(1.03825 3.32629e-06 0)
(1.03824 5.77167e-06 0)
(1.03824 5.93117e-06 0)
(1.03824 2.07291e-05 0)
(1.03819 6.63338e-06 0)
(1.03824 0.000322729 0)
(1.03725 0.000984963 0)
(0.943408 0.0544276 0)
(1.09631 0.00416949 0)
(1.00444 -0.00062507 0)
(1.06141 0.00169217 0)
(1.02565 -0.000415405 0)
(1.04777 0.000862918 0)
(1.03373 -0.000111343 0)
(1.04239 0.000402707 0)
(1.03685 1.69008e-06 0)
(1.04023 0.000196029 0)
(1.03803 2.88377e-05 0)
(1.03935 9.82111e-05 0)
(1.03848 2.68783e-05 0)
(1.03899 5.00681e-05 0)
(1.03864 1.89716e-05 0)
(1.03884 2.59831e-05 0)
(1.0387 1.21049e-05 0)
(1.03877 1.38081e-05 0)
(1.03872 7.52128e-06 0)
(1.03875 7.68522e-06 0)
(1.03872 4.78124e-06 0)
(1.03873 4.5998e-06 0)
(1.03872 3.24275e-06 0)
(1.03873 3.08815e-06 0)
(1.03872 2.52247e-06 0)
(1.03873 2.42749e-06 0)
(1.03872 2.16989e-06 0)
(1.03872 2.1177e-06 0)
(1.03872 1.97845e-06 0)
(1.03872 1.96004e-06 0)
(1.03872 1.89205e-06 0)
(1.03872 1.90096e-06 0)
(1.03872 1.86863e-06 0)
(1.03872 1.87419e-06 0)
(1.03872 1.84212e-06 0)
(1.03872 1.85043e-06 0)
(1.03872 1.81754e-06 0)
(1.03872 1.8283e-06 0)
(1.03872 1.80486e-06 0)
(1.03872 1.82993e-06 0)
(1.03872 1.8114e-06 0)
(1.03872 1.8323e-06 0)
(1.03872 1.82148e-06 0)
(1.03872 1.84983e-06 0)
(1.03872 1.84222e-06 0)
(1.03872 1.87555e-06 0)
(1.03872 1.85534e-06 0)
(1.03872 1.87556e-06 0)
(1.03872 1.84757e-06 0)
(1.03872 1.85692e-06 0)
(1.03872 1.82663e-06 0)
(1.03872 1.83961e-06 0)
(1.03872 1.81407e-06 0)
(1.03872 1.83279e-06 0)
(1.03872 1.80854e-06 0)
(1.03872 1.81766e-06 0)
(1.03872 1.79076e-06 0)
(1.03872 1.80917e-06 0)
(1.03872 1.79546e-06 0)
(1.03872 1.83211e-06 0)
(1.03872 1.82952e-06 0)
(1.03872 1.86222e-06 0)
(1.03872 1.85343e-06 0)
(1.03872 1.86969e-06 0)
(1.03872 1.84336e-06 0)
(1.03872 1.8499e-06 0)
(1.03872 1.82244e-06 0)
(1.03872 1.83839e-06 0)
(1.03872 1.82159e-06 0)
(1.03872 1.83949e-06 0)
(1.03872 1.82919e-06 0)
(1.03872 1.84666e-06 0)
(1.03872 1.83005e-06 0)
(1.03872 1.83987e-06 0)
(1.03872 1.81836e-06 0)
(1.03872 1.83174e-06 0)
(1.03872 1.82253e-06 0)
(1.03872 1.83904e-06 0)
(1.03872 1.83084e-06 0)
(1.03872 1.84948e-06 0)
(1.03872 1.84366e-06 0)
(1.03872 1.85788e-06 0)
(1.03872 1.84778e-06 0)
(1.03872 1.8558e-06 0)
(1.03872 1.85358e-06 0)
(1.03872 1.86337e-06 0)
(1.03872 1.86471e-06 0)
(1.03872 1.88515e-06 0)
(1.03872 1.92175e-06 0)
(1.03872 1.97422e-06 0)
(1.03872 2.12048e-06 0)
(1.03872 2.31104e-06 0)
(1.03872 2.882e-06 0)
(1.03872 3.50147e-06 0)
(1.03872 6.19356e-06 0)
(1.03872 6.31896e-06 0)
(1.03872 2.34507e-05 0)
(1.03868 7.90414e-06 0)
(1.03872 0.000357151 0)
(1.03802 0.00108305 0)
(0.94176 0.0496371 0)
(1.09642 0.00401942 0)
(1.00336 -0.000595211 0)
(1.06165 0.00167969 0)
(1.02516 -0.000400221 0)
(1.0479 0.000867281 0)
(1.03357 -0.000105124 0)
(1.0425 0.000406638 0)
(1.03685 5.30134e-06 0)
(1.04035 0.000198478 0)
(1.03811 3.07609e-05 0)
(1.03948 9.94839e-05 0)
(1.0386 2.76492e-05 0)
(1.03913 5.03981e-05 0)
(1.03878 1.8926e-05 0)
(1.03899 2.5599e-05 0)
(1.03885 1.15183e-05 0)
(1.03893 1.30095e-05 0)
(1.03887 6.62183e-06 0)
(1.0389 6.66203e-06 0)
(1.03888 3.74638e-06 0)
(1.03889 3.5036e-06 0)
(1.03888 2.13927e-06 0)
(1.03889 1.94904e-06 0)
(1.03888 1.35068e-06 0)
(1.03888 1.23296e-06 0)
(1.03888 9.48255e-07 0)
(1.03888 8.84182e-07 0)
(1.03888 7.34993e-07 0)
(1.03888 7.12141e-07 0)
(1.03888 6.39184e-07 0)
(1.03888 6.46124e-07 0)
(1.03888 6.12638e-07 0)
(1.03888 6.1808e-07 0)
(1.03888 5.83565e-07 0)
(1.03888 5.93196e-07 0)
(1.03888 5.5801e-07 0)
(1.03888 5.67415e-07 0)
(1.03888 5.42298e-07 0)
(1.03888 5.68732e-07 0)
(1.03888 5.48825e-07 0)
(1.03888 5.7063e-07 0)
(1.03888 5.60784e-07 0)
(1.03888 5.92512e-07 0)
(1.03888 5.86225e-07 0)
(1.03888 6.23262e-07 0)
(1.03888 6.02081e-07 0)
(1.03888 6.22692e-07 0)
(1.03888 5.92482e-07 0)
(1.03888 6.00207e-07 0)
(1.03888 5.66334e-07 0)
(1.03888 5.78959e-07 0)
(1.03888 5.51895e-07 0)
(1.03888 5.71824e-07 0)
(1.03888 5.46691e-07 0)
(1.03888 5.56551e-07 0)
(1.03888 5.28236e-07 0)
(1.03888 5.47805e-07 0)
(1.03888 5.33832e-07 0)
(1.03888 5.73002e-07 0)
(1.03888 5.71406e-07 0)
(1.03888 6.07171e-07 0)
(1.03888 5.98951e-07 0)
(1.03888 6.16402e-07 0)
(1.03888 5.88046e-07 0)
(1.03888 5.94026e-07 0)
(1.03888 5.64148e-07 0)
(1.03888 5.79952e-07 0)
(1.03888 5.61337e-07 0)
(1.03888 5.7929e-07 0)
(1.03888 5.67911e-07 0)
(1.03888 5.86453e-07 0)
(1.03888 5.68984e-07 0)
(1.03888 5.79136e-07 0)
(1.03888 5.56636e-07 0)
(1.03888 5.70792e-07 0)
(1.03888 5.61474e-07 0)
(1.03888 5.79268e-07 0)
(1.03888 5.70393e-07 0)
(1.03888 5.89904e-07 0)
(1.03888 5.83938e-07 0)
(1.03888 5.9888e-07 0)
(1.03888 5.88652e-07 0)
(1.03888 5.97122e-07 0)
(1.03888 5.94628e-07 0)
(1.03888 6.05006e-07 0)
(1.03888 6.05518e-07 0)
(1.03888 6.26913e-07 0)
(1.03888 6.64591e-07 0)
(1.03888 7.20197e-07 0)
(1.03888 8.72298e-07 0)
(1.03888 1.08257e-06 0)
(1.03888 1.69288e-06 0)
(1.03888 2.33172e-06 0)
(1.03888 5.09595e-06 0)
(1.03888 5.17687e-06 0)
(1.03888 2.40939e-05 0)
(1.03885 7.51229e-06 0)
(1.03889 0.00037883 0)
(1.03847 0.00114312 0)
(0.940254 0.044963 0)
(1.09643 0.0038142 0)
(1.00229 -0.000562182 0)
(1.06176 0.00163296 0)
(1.02461 -0.000379517 0)
(1.04792 0.000852918 0)
(1.03332 -9.73735e-05 0)
(1.04249 0.000401876 0)
(1.03675 8.77738e-06 0)
(1.04035 0.000197016 0)
(1.03809 3.23524e-05 0)
(1.0395 9.90964e-05 0)
(1.03861 2.83388e-05 0)
(1.03917 5.02273e-05 0)
(1.03881 1.90928e-05 0)
(1.03903 2.53419e-05 0)
(1.03889 1.13607e-05 0)
(1.03897 1.26394e-05 0)
(1.03892 6.2768e-06 0)
(1.03895 6.20942e-06 0)
(1.03893 3.31763e-06 0)
(1.03894 3.02554e-06 0)
(1.03893 1.69472e-06 0)
(1.03894 1.48977e-06 0)
(1.03893 8.84667e-07 0)
(1.03894 7.5166e-07 0)
(1.03893 4.58467e-07 0)
(1.03894 3.87463e-07 0)
(1.03893 2.31637e-07 0)
(1.03893 2.04995e-07 0)
(1.03893 1.27581e-07 0)
(1.03893 1.32624e-07 0)
(1.03893 9.86246e-08 0)
(1.03893 1.04578e-07 0)
(1.03893 6.77953e-08 0)
(1.03893 7.94526e-08 0)
(1.03893 4.21509e-08 0)
(1.03893 4.96746e-08 0)
(1.03893 2.30276e-08 0)
(1.03893 5.022e-08 0)
(1.03893 2.8891e-08 0)
(1.03893 5.09756e-08 0)
(1.03893 4.24242e-08 0)
(1.03893 7.7133e-08 0)
(1.03893 7.23393e-08 0)
(1.03893 1.12622e-07 0)
(1.03893 9.07493e-08 0)
(1.03893 1.11267e-07 0)
(1.03893 7.94783e-08 0)
(1.03893 8.54352e-08 0)
(1.03893 4.88088e-08 0)
(1.03893 6.07389e-08 0)
(1.03893 3.27877e-08 0)
(1.03893 5.34761e-08 0)
(1.03893 2.7736e-08 0)
(1.03893 3.80033e-08 0)
(1.03893 9.2017e-09 0)
(1.03893 2.90377e-08 0)
(1.03893 1.51653e-08 0)
(1.03893 5.6191e-08 0)
(1.03893 5.59005e-08 0)
(1.03893 9.57078e-08 0)
(1.03893 8.85117e-08 0)
(1.03893 1.0682e-07 0)
(1.03893 7.57841e-08 0)
(1.03893 8.07249e-08 0)
(1.03893 4.88783e-08 0)
(1.03893 6.40351e-08 0)
(1.03893 4.37097e-08 0)
(1.03893 6.12644e-08 0)
(1.03893 4.89696e-08 0)
(1.03893 6.831e-08 0)
(1.03893 5.0338e-08 0)
(1.03893 6.06327e-08 0)
(1.03893 3.78047e-08 0)
(1.03893 5.27081e-08 0)
(1.03893 4.3558e-08 0)
(1.03893 6.23448e-08 0)
(1.03893 5.2879e-08 0)
(1.03893 7.27727e-08 0)
(1.03893 6.66603e-08 0)
(1.03893 8.19273e-08 0)
(1.03893 7.17059e-08 0)
(1.03893 8.04645e-08 0)
(1.03893 7.77153e-08 0)
(1.03894 8.855e-08 0)
(1.03894 8.85143e-08 0)
(1.03894 1.11154e-07 0)
(1.03894 1.49783e-07 0)
(1.03894 2.07503e-07 0)
(1.03894 3.61922e-07 0)
(1.03894 5.76788e-07 0)
(1.03893 1.19828e-06 0)
(1.03894 1.81182e-06 0)
(1.03893 4.60387e-06 0)
(1.03894 4.6419e-06 0)
(1.03893 2.4833e-05 0)
(1.03891 7.58977e-06 0)
(1.03894 0.000389635 0)
(1.0388 0.00116858 0)
(0.938925 0.0403951 0)
(1.0964 0.00356365 0)
(1.00131 -0.000525193 0)
(1.06182 0.00155688 0)
(1.02407 -0.000354044 0)
(1.0479 0.000821916 0)
(1.03306 -8.85387e-05 0)
(1.04245 0.000389215 0)
(1.03662 1.17857e-05 0)
(1.04032 0.000191786 0)
(1.03803 3.33992e-05 0)
(1.03949 9.69871e-05 0)
(1.03859 2.87433e-05 0)
(1.03916 4.94121e-05 0)
(1.03881 1.92687e-05 0)
(1.03904 2.50302e-05 0)
(1.0389 1.14281e-05 0)
(1.03899 1.25034e-05 0)
(1.03893 6.28074e-06 0)
(1.03897 6.12459e-06 0)
(1.03894 3.28451e-06 0)
(1.03896 2.95328e-06 0)
(1.03895 1.64355e-06 0)
(1.03895 1.42395e-06 0)
(1.03895 8.31052e-07 0)
(1.03895 6.91219e-07 0)
(1.03895 4.09778e-07 0)
(1.03895 3.37783e-07 0)
(1.03895 1.79665e-07 0)
(1.03895 1.50671e-07 0)
(1.03895 7.16721e-08 0)
(1.03895 7.46988e-08 0)
(1.03895 4.12861e-08 0)
(1.03895 4.79473e-08 0)
(1.03895 1.04008e-08 0)
(1.03895 2.39539e-08 0)
(1.03895 -1.38111e-08 0)
(1.03895 -8.58326e-09 0)
(1.03895 -3.68551e-08 0)
(1.03895 -9.32941e-09 0)
(1.03895 -3.24816e-08 0)
(1.03895 -1.06592e-08 0)
(1.03895 -1.76202e-08 0)
(1.03895 1.96869e-08 0)
(1.03895 1.64446e-08 0)
(1.03895 5.99396e-08 0)
(1.03895 3.7228e-08 0)
(1.03895 5.72057e-08 0)
(1.03895 2.46665e-08 0)
(1.03895 2.89887e-08 0)
(1.03895 -9.6449e-09 0)
(1.03895 1.68278e-09 0)
(1.03895 -2.6664e-08 0)
(1.03895 -5.76883e-09 0)
(1.03895 -3.19622e-08 0)
(1.03895 -2.16636e-08 0)
(1.03895 -5.11357e-08 0)
(1.03895 -3.08444e-08 0)
(1.03895 -4.43604e-08 0)
(1.03895 -2.32713e-09 0)
(1.03895 -7.11715e-10 0)
(1.03895 4.17435e-08 0)
(1.03895 3.57327e-08 0)
(1.03895 5.46728e-08 0)
(1.03895 2.24694e-08 0)
(1.03895 2.63671e-08 0)
(1.03895 -7.35139e-09 0)
(1.03895 6.92832e-09 0)
(1.03895 -1.48215e-08 0)
(1.03895 2.00724e-09 0)
(1.03895 -1.10308e-08 0)
(1.03895 8.80186e-09 0)
(1.03895 -9.35689e-09 0)
(1.03895 8.96367e-10 0)
(1.03895 -2.16594e-08 0)
(1.03895 -6.0494e-09 0)
(1.03895 -1.48785e-08 0)
(1.03895 4.23142e-09 0)
(1.03895 -5.76166e-09 0)
(1.03895 1.43312e-08 0)
(1.03895 8.11205e-09 0)
(1.03895 2.34957e-08 0)
(1.03895 1.32618e-08 0)
(1.03895 2.21855e-08 0)
(1.03895 1.92554e-08 0)
(1.03895 3.05051e-08 0)
(1.03895 2.9578e-08 0)
(1.03895 5.22654e-08 0)
(1.03895 9.01079e-08 0)
(1.03895 1.48092e-07 0)
(1.03895 3.00443e-07 0)
(1.03895 5.03614e-07 0)
(1.03895 1.10717e-06 0)
(1.03895 1.70015e-06 0)
(1.03895 4.51194e-06 0)
(1.03896 4.51216e-06 0)
(1.03895 2.5415e-05 0)
(1.03895 7.92651e-06 0)
(1.03897 0.000389859 0)
(1.03909 0.00116172 0)
(0.937774 0.0359184 0)
(1.09638 0.00327496 0)
(1.00043 -0.000484217 0)
(1.06185 0.00145518 0)
(1.02357 -0.000324867 0)
(1.04786 0.000775704 0)
(1.03281 -7.92366e-05 0)
(1.0424 0.000369046 0)
(1.03649 1.39161e-05 0)
(1.04028 0.000182712 0)
(1.03796 3.3455e-05 0)
(1.03946 9.28807e-05 0)
(1.03856 2.8418e-05 0)
(1.03915 4.75784e-05 0)
(1.0388 1.90073e-05 0)
(1.03903 2.42309e-05 0)
(1.03889 1.12802e-05 0)
(1.03899 1.21647e-05 0)
(1.03893 6.2101e-06 0)
(1.03897 5.98616e-06 0)
(1.03895 3.25524e-06 0)
(1.03896 2.90058e-06 0)
(1.03895 1.63095e-06 0)
(1.03896 1.40293e-06 0)
(1.03896 8.29909e-07 0)
(1.03896 6.85573e-07 0)
(1.03896 4.12195e-07 0)
(1.03896 3.40146e-07 0)
(1.03896 1.84085e-07 0)
(1.03896 1.54335e-07 0)
(1.03896 7.68042e-08 0)
(1.03896 7.78168e-08 0)
(1.03896 4.60342e-08 0)
(1.03896 5.35773e-08 0)
(1.03896 1.68406e-08 0)
(1.03896 3.20495e-08 0)
(1.03896 -4.4655e-09 0)
(1.03896 -1.72844e-09 0)
(1.03896 -3.16017e-08 0)
(1.03896 -4.22485e-09 0)
(1.03896 -2.91593e-08 0)
(1.03896 -7.93763e-09 0)
(1.03896 -1.3145e-08 0)
(1.03896 2.64459e-08 0)
(1.03896 2.47414e-08 0)
(1.03896 7.08309e-08 0)
(1.03896 4.76465e-08 0)
(1.03896 6.66927e-08 0)
(1.03896 3.37677e-08 0)
(1.03896 3.6684e-08 0)
(1.03896 -3.34748e-09 0)
(1.03896 7.61802e-09 0)
(1.03896 -2.08196e-08 0)
(1.03896 -1.11038e-10 0)
(1.03896 -2.68498e-08 0)
(1.03896 -1.6923e-08 0)
(1.03896 -4.74581e-08 0)
(1.03896 -2.63956e-08 0)
(1.03896 -3.93284e-08 0)
(1.03896 3.37818e-09 0)
(1.03896 7.14676e-09 0)
(1.03896 5.0741e-08 0)
(1.03896 4.60043e-08 0)
(1.03896 6.53233e-08 0)
(1.03896 3.35489e-08 0)
(1.03896 3.66143e-08 0)
(1.03896 1.21182e-09 0)
(1.03896 1.4432e-08 0)
(1.03896 -8.63132e-09 0)
(1.03896 7.2952e-09 0)
(1.03896 -6.33924e-09 0)
(1.03896 1.38145e-08 0)
(1.03896 -4.37847e-09 0)
(1.03896 5.68164e-09 0)
(1.03896 -1.61994e-08 0)
(1.03896 1.55013e-10 0)
(1.03896 -8.20017e-09 0)
(1.03896 1.10676e-08 0)
(1.03896 5.88429e-10 0)
(1.03896 2.04989e-08 0)
(1.03896 1.41348e-08 0)
(1.03896 2.93405e-08 0)
(1.03896 1.90363e-08 0)
(1.03896 2.7983e-08 0)
(1.03896 2.48989e-08 0)
(1.03896 3.65187e-08 0)
(1.03896 3.43458e-08 0)
(1.03896 5.58566e-08 0)
(1.03896 9.10685e-08 0)
(1.03896 1.47441e-07 0)
(1.03896 2.9359e-07 0)
(1.03896 4.88221e-07 0)
(1.03896 1.0704e-06 0)
(1.03896 1.6394e-06 0)
(1.03896 4.41071e-06 0)
(1.03896 4.37855e-06 0)
(1.03896 2.53557e-05 0)
(1.03897 8.08917e-06 0)
(1.03898 0.000379678 0)
(1.03935 0.00112463 0)
(0.936788 0.0315202 0)
(1.09636 0.00295443 0)
(0.999649 -0.000439225 0)
(1.06187 0.0013314 0)
(1.02313 -0.000292721 0)