/*--------------------------------*- C++ -*----------------------------------*\
| =========                 |                                                 |
| \\      /  F ield         | OpenFOAM: The Open Source CFD Toolbox           |
|  \\    /   O peration     | Version:  v1906                                 |
|   \\  /    A nd           | Web:      www.OpenFOAM.com                      |
|    \\/     M anipulation  |                                                 |
\*---------------------------------------------------------------------------*/
FoamFile
{
    version     2.0;
    format      ascii;
    class       volVectorField;
    location    "2";
    object      U;
}
// * * * * * * * * * * * * * * * * * * * * * * * * * * * * * * * * * * * * * //

dimensions      [0 1 -1 0 0 0 0];


internalField   nonuniform List<vector> 
4000
(
(0.537561 0.0563969 0)
(0.552167 0.00359831 0)
(0.517052 -0.0017642 0)
(0.522873 -0.00200129 0)
(0.521061 -0.00213082 0)
(0.521994 -0.00203769 0)
(0.521388 -0.00204478 0)
(0.521238 -0.0020349 0)
(0.520894 -0.00204434 0)
(0.520686 -0.00204823 0)
(0.520481 -0.002054 0)
(0.520326 -0.00205772 0)
(0.520191 -0.0020611 0)
(0.520082 -0.00206365 0)
(0.51999 -0.00206572 0)
(0.519913 -0.00206735 0)
(0.519848 -0.00206866 0)
(0.519792 -0.00206973 0)
(0.519745 -0.00207061 0)
(0.519705 -0.00207131 0)
(0.51967 -0.0020719 0)
(0.519641 -0.00207242 0)
(0.519616 -0.00207281 0)
(0.519594 -0.00207317 0)
(0.519576 -0.00207346 0)
(0.51956 -0.00207373 0)
(0.519547 -0.00207395 0)
(0.519536 -0.00207414 0)
(0.519526 -0.00207429 0)
(0.519518 -0.00207442 0)
(0.519512 -0.00207451 0)
(0.519506 -0.00207462 0)
(0.519502 -0.0020747 0)
(0.519498 -0.00207478 0)
(0.519495 -0.00207483 0)
(0.519492 -0.00207488 0)
(0.51949 -0.00207492 0)
(0.519488 -0.00207494 0)
(0.519487 -0.00207497 0)
(0.519486 -0.00207499 0)
(0.519485 -0.00207499 0)
(0.519484 -0.00207503 0)
(0.519483 -0.00207503 0)
(0.519483 -0.00207505 0)
(0.519482 -0.00207505 0)
(0.519482 -0.00207506 0)
(0.519482 -0.00207507 0)
(0.519481 -0.00207507 0)
(0.519481 -0.00207507 0)
(0.519481 -0.00207508 0)
(0.519481 -0.00207508 0)
(0.519481 -0.00207509 0)
(0.519481 -0.00207508 0)
(0.519481 -0.00207509 0)
(0.519481 -0.00207508 0)
(0.519481 -0.00207509 0)
(0.519481 -0.00207509 0)
(0.519481 -0.00207509 0)
(0.519481 -0.00207509 0)
(0.519481 -0.00207509 0)
(0.519481 -0.00207508 0)
(0.519481 -0.00207509 0)
(0.519481 -0.00207509 0)
(0.519481 -0.00207509 0)
(0.519481 -0.00207509 0)
(0.519481 -0.00207509 0)
(0.519481 -0.00207509 0)
(0.519481 -0.00207509 0)
(0.519481 -0.00207509 0)
(0.519481 -0.00207509 0)
(0.519481 -0.00207509 0)
(0.519481 -0.0020751 0)
(0.519481 -0.00207509 0)
(0.519481 -0.00207509 0)
(0.519481 -0.00207509 0)
(0.519481 -0.00207509 0)
(0.519481 -0.00207509 0)
(0.519481 -0.00207509 0)
(0.51948 -0.00207508 0)
(0.51948 -0.00207508 0)
(0.51948 -0.00207507 0)
(0.51948 -0.00207507 0)
(0.51948 -0.00207506 0)
(0.51948 -0.00207505 0)
(0.519479 -0.00207503 0)
(0.519479 -0.00207501 0)
(0.519478 -0.00207497 0)
(0.519477 -0.00207493 0)
(0.519475 -0.00207485 0)
(0.519472 -0.00207476 0)
(0.519469 -0.00207464 0)
(0.519464 -0.0020745 0)
(0.519458 -0.00207436 0)
(0.51945 -0.00207435 0)
(0.519443 -0.00207464 0)
(0.519436 -0.00207528 0)
(0.519442 -0.00207439 0)
(0.51936 -0.00206119 0)
(0.519228 -0.0020212 0)
(0.518638 -0.00215161 0)
(0.864907 0.128454 0)
(0.911545 0.0160066 0)
(0.861938 0.000986681 0)
(0.871323 -7.16016e-05 0)
(0.867939 -0.000506091 0)
(0.869527 -0.000191171 0)
(0.868569 -0.00020229 0)
(0.868401 -0.000164277 0)
(0.867889 -0.000193936 0)
(0.867593 -0.000206642 0)
(0.867289 -0.000226115 0)
(0.867063 -0.000239061 0)
(0.866865 -0.000251073 0)
(0.866705 -0.000260364 0)
(0.866569 -0.000267511 0)
(0.866455 -0.000273229 0)
(0.866358 -0.000277952 0)
(0.866276 -0.000281815 0)
(0.866206 -0.000285114 0)
(0.866146 -0.000287828 0)
(0.866094 -0.000290112 0)
(0.86605 -0.000292161 0)
(0.866012 -0.000293817 0)
(0.865979 -0.000295296 0)
(0.865951 -0.000296575 0)
(0.865927 -0.000297685 0)
(0.865907 -0.000298636 0)
(0.86589 -0.000299431 0)
(0.865875 -0.000300131 0)
(0.865862 -0.000300713 0)
(0.865852 -0.000301159 0)
(0.865843 -0.000301669 0)
(0.865836 -0.000302022 0)
(0.86583 -0.00030236 0)
(0.865825 -0.000302601 0)
(0.86582 -0.000302826 0)
(0.865817 -0.000303008 0)
(0.865814 -0.000303122 0)
(0.865811 -0.000303265 0)
(0.86581 -0.000303387 0)
(0.865808 -0.00030341 0)
(0.865807 -0.000303546 0)
(0.865806 -0.00030358 0)
(0.865805 -0.000303643 0)
(0.865804 -0.000303662 0)
(0.865803 -0.000303699 0)
(0.865803 -0.000303726 0)
(0.865803 -0.000303747 0)
(0.865802 -0.000303759 0)
(0.865802 -0.000303793 0)
(0.865802 -0.000303775 0)
(0.865802 -0.000303828 0)
(0.865802 -0.000303803 0)
(0.865802 -0.000303821 0)
(0.865802 -0.000303811 0)
(0.865802 -0.000303819 0)
(0.865801 -0.000303819 0)
(0.865801 -0.000303832 0)
(0.865801 -0.000303814 0)
(0.865801 -0.000303839 0)
(0.865801 -0.000303812 0)
(0.865801 -0.000303841 0)
(0.865801 -0.000303825 0)
(0.865801 -0.000303839 0)
(0.865801 -0.000303829 0)
(0.865801 -0.000303834 0)
(0.865801 -0.000303827 0)
(0.865801 -0.000303848 0)
(0.865801 -0.000303827 0)
(0.865801 -0.000303845 0)
(0.865801 -0.000303824 0)
(0.865801 -0.000303844 0)
(0.865801 -0.000303828 0)
(0.865801 -0.000303833 0)
(0.865801 -0.000303829 0)
(0.865801 -0.000303837 0)
(0.865801 -0.000303824 0)
(0.865801 -0.000303836 0)
(0.865801 -0.000303811 0)
(0.865801 -0.000303812 0)
(0.8658 -0.000303784 0)
(0.8658 -0.000303777 0)
(0.8658 -0.00030374 0)
(0.865799 -0.000303702 0)
(0.865799 -0.000303634 0)
(0.865798 -0.000303552 0)
(0.865797 -0.000303418 0)
(0.865795 -0.000303253 0)
(0.865792 -0.000302991 0)
(0.865788 -0.000302657 0)
(0.865783 -0.000302191 0)
(0.865776 -0.000301646 0)
(0.865767 -0.000301024 0)
(0.865754 -0.000300677 0)
(0.865742 -0.000300891 0)
(0.865724 -0.000301459 0)
(0.865718 -0.000293347 0)
(0.865546 -0.000239586 0)
(0.865253 -7.34848e-05 0)
(0.863186 -0.000219218 0)
(0.960309 0.135907 0)
(1.02532 0.0244351 0)
(0.976303 0.00334357 0)
(0.987386 0.000823695 0)
(0.983077 0.000101804 0)
(0.984979 0.000606843 0)
(0.983906 0.00061284 0)
(0.983811 0.000676976 0)
(0.983288 0.00062892 0)
(0.983012 0.000605096 0)
(0.98271 0.000570748 0)
(0.982491 0.000547153 0)
(0.982297 0.000525654 0)
(0.982141 0.000508956 0)
(0.982008 0.000495794 0)
(0.981897 0.000485269 0)
(0.981802 0.000476539 0)
(0.981721 0.000469413 0)
(0.981652 0.000463369 0)
(0.981593 0.000458309 0)
(0.981541 0.000454054 0)
(0.981497 0.000450289 0)
(0.981459 0.000447166 0)
(0.981426 0.000444379 0)
(0.981398 0.000441983 0)
(0.981374 0.000439899 0)
(0.981353 0.000438098 0)
(0.981335 0.000436618 0)
(0.98132 0.000435278 0)
(0.981307 0.000434132 0)
(0.981296 0.000433238 0)
(0.981287 0.000432275 0)
(0.981279 0.000431587 0)
(0.981273 0.000430926 0)
(0.981267 0.000430453 0)
(0.981263 0.000430036 0)
(0.981259 0.000429649 0)
(0.981256 0.000429407 0)
(0.981253 0.000429144 0)
(0.981251 0.00042889 0)
(0.981249 0.000428808 0)
(0.981248 0.00042857 0)
(0.981246 0.000428491 0)
(0.981245 0.000428365 0)
(0.981245 0.000428315 0)
(0.981244 0.000428255 0)
(0.981243 0.000428188 0)
(0.981243 0.000428155 0)
(0.981243 0.000428127 0)
(0.981242 0.000428053 0)
(0.981242 0.000428084 0)
(0.981242 0.000428005 0)
(0.981242 0.000428039 0)
(0.981242 0.000428007 0)
(0.981242 0.000428013 0)
(0.981242 0.000428007 0)
(0.981242 0.000428007 0)
(0.981242 0.000427986 0)
(0.981241 0.000428013 0)
(0.981241 0.000427966 0)
(0.981241 0.000428005 0)
(0.981241 0.00042796 0)
(0.981241 0.000427986 0)
(0.981241 0.000427969 0)
(0.981241 0.000427977 0)
(0.981241 0.000427968 0)
(0.981241 0.00042798 0)
(0.981241 0.000427953 0)
(0.981241 0.000427984 0)
(0.981241 0.000427955 0)
(0.981241 0.000427991 0)
(0.981241 0.000427964 0)
(0.981241 0.000427984 0)
(0.981241 0.000427974 0)
(0.981241 0.00042798 0)
(0.981241 0.000427969 0)
(0.981241 0.000427988 0)
(0.981241 0.000427974 0)
(0.981241 0.000428012 0)
(0.981241 0.000428012 0)
(0.981241 0.000428061 0)
(0.98124 0.000428082 0)
(0.98124 0.000428151 0)
(0.981239 0.000428228 0)
(0.981239 0.000428357 0)
(0.981238 0.00042852 0)
(0.981237 0.000428774 0)
(0.981235 0.0004291 0)
(0.981232 0.000429597 0)
(0.981228 0.000430242 0)
(0.981223 0.000431142 0)
(0.981216 0.000432226 0)
(0.981206 0.000433539 0)
(0.981193 0.000434526 0)
(0.981179 0.000435192 0)
(0.981152 0.000436338 0)
(0.981132 0.000458763 0)
(0.980909 0.000569022 0)
(0.980542 0.000943032 0)
(0.977594 0.00117797 0)
(0.984961 0.123299 0)
(1.05948 0.0286619 0)
(1.01374 0.00469198 0)
(1.02589 0.000699803 0)
(1.02098 -0.000186491 0)
(1.02309 0.000441373 0)
(1.02198 0.000479764 0)
(1.02198 0.000562278 0)
(1.0215 0.000500671 0)
(1.02128 0.000465598 0)
(1.02101 0.000417766 0)
(1.02082 0.000383736 0)
(1.02065 0.000353029 0)
(1.02052 0.000328812 0)
(1.0204 0.000309866 0)
(1.02031 0.000294981 0)
(1.02022 0.00028267 0)
(1.02015 0.000272634 0)
(1.02009 0.000264132 0)
(1.02004 0.000256984 0)
(1.01999 0.000250977 0)
(1.01996 0.000245676 0)
(1.01992 0.000241218 0)
(1.01989 0.000237242 0)
(1.01987 0.00023384 0)
(1.01985 0.000230863 0)
(1.01983 0.000228258 0)
(1.01981 0.00022611 0)
(1.0198 0.000224183 0)
(1.01978 0.000222519 0)
(1.01977 0.000221201 0)
(1.01977 0.000219824 0)
(1.01976 0.000218829 0)
(1.01975 0.000217877 0)
(1.01975 0.000217173 0)
(1.01974 0.000216563 0)
(1.01974 0.000215979 0)
(1.01974 0.000215614 0)
(1.01973 0.000215237 0)
(1.01973 0.000214859 0)
(1.01973 0.000214708 0)
(1.01973 0.000214377 0)
(1.01973 0.000214252 0)
(1.01973 0.000214067 0)
(1.01972 0.000213985 0)
(1.01972 0.000213902 0)
(1.01972 0.000213794 0)
(1.01972 0.00021374 0)
(1.01972 0.000213694 0)
(1.01972 0.000213587 0)
(1.01972 0.000213628 0)
(1.01972 0.000213529 0)
(1.01972 0.000213569 0)
(1.01972 0.000213528 0)
(1.01972 0.000213529 0)
(1.01972 0.000213523 0)
(1.01972 0.000213521 0)
(1.01972 0.000213493 0)
(1.01972 0.000213522 0)
(1.01972 0.000213457 0)
(1.01972 0.000213503 0)
(1.01972 0.000213448 0)
(1.01972 0.000213481 0)
(1.01972 0.000213462 0)
(1.01972 0.000213468 0)
(1.01972 0.000213457 0)
(1.01972 0.000213473 0)
(1.01972 0.00021344 0)
(1.01972 0.000213481 0)
(1.01972 0.000213445 0)
(1.01972 0.000213491 0)
(1.01972 0.00021346 0)
(1.01972 0.000213481 0)
(1.01972 0.000213467 0)
(1.01972 0.000213474 0)
(1.01972 0.000213461 0)
(1.01972 0.000213486 0)
(1.01972 0.000213472 0)
(1.01972 0.000213521 0)
(1.01972 0.000213522 0)
(1.01972 0.000213591 0)
(1.01972 0.000213627 0)
(1.01972 0.000213725 0)
(1.01972 0.000213842 0)
(1.01972 0.00021403 0)
(1.01972 0.000214272 0)
(1.01972 0.000214641 0)
(1.01972 0.000215119 0)
(1.01971 0.00021584 0)
(1.01971 0.000216782 0)
(1.0197 0.000218101 0)
(1.0197 0.000219726 0)
(1.01969 0.000221798 0)
(1.01968 0.000223661 0)
(1.01966 0.000226071 0)
(1.01963 0.000230485 0)
(1.0196 0.000271489 0)
(1.01935 0.000444048 0)
(1.01899 0.00104957 0)
(1.01589 0.00176922 0)
(0.988569 0.10998 0)
(1.06794 0.0309694 0)
(1.02559 0.00569771 0)
(1.03849 0.000547024 0)
(1.03316 -0.000408412 0)
(1.03544 0.000296203 0)
(1.03431 0.000368513 0)
(1.03442 0.000462357 0)
(1.03399 0.000391584 0)
(1.03383 0.000347173 0)
(1.03361 0.000289081 0)
(1.03346 0.000246934 0)
(1.03332 0.000209315 0)
(1.03321 0.000179569 0)
(1.03312 0.000156104 0)
(1.03304 0.000137596 0)
(1.03297 0.000122285 0)
(1.03291 0.000109781 0)
(1.03286 9.91957e-05 0)
(1.03282 9.02586e-05 0)
(1.03278 8.27065e-05 0)
(1.03275 7.6032e-05 0)
(1.03272 7.03685e-05 0)
(1.0327 6.52881e-05 0)
(1.03268 6.09142e-05 0)
(1.03266 5.70276e-05 0)
(1.03264 5.35384e-05 0)
(1.03263 5.06199e-05 0)
(1.03261 4.81755e-05 0)
(1.0326 4.60625e-05 0)
(1.0326 4.43844e-05 0)
(1.03259 4.26627e-05 0)
(1.03258 4.14077e-05 0)
(1.03258 4.01946e-05 0)
(1.03257 3.92727e-05 0)
(1.03257 3.84898e-05 0)
(1.03256 3.77344e-05 0)
(1.03256 3.72513e-05 0)
(1.03256 3.67753e-05 0)
(1.03256 3.62852e-05 0)
(1.03256 3.60653e-05 0)
(1.03255 3.56474e-05 0)
(1.03255 3.54751e-05 0)
(1.03255 3.52381e-05 0)
(1.03255 3.51259e-05 0)
(1.03255 3.50205e-05 0)
(1.03255 3.4871e-05 0)
(1.03255 3.47927e-05 0)
(1.03255 3.47361e-05 0)
(1.03255 3.46013e-05 0)
(1.03255 3.46514e-05 0)
(1.03255 3.45344e-05 0)
(1.03255 3.45762e-05 0)
(1.03255 3.45274e-05 0)
(1.03255 3.45243e-05 0)
(1.03255 3.45195e-05 0)
(1.03255 3.45161e-05 0)
(1.03255 3.44788e-05 0)
(1.03255 3.45104e-05 0)
(1.03255 3.44293e-05 0)
(1.03255 3.4483e-05 0)
(1.03255 3.44184e-05 0)
(1.03255 3.44535e-05 0)
(1.03255 3.44343e-05 0)
(1.03255 3.44398e-05 0)
(1.03255 3.44272e-05 0)
(1.03255 3.44463e-05 0)
(1.03255 3.44078e-05 0)
(1.03255 3.44577e-05 0)
(1.03255 3.4416e-05 0)
(1.03255 3.44724e-05 0)
(1.03255 3.44366e-05 0)
(1.03255 3.44587e-05 0)
(1.03255 3.44413e-05 0)
(1.03255 3.44492e-05 0)
(1.03255 3.44346e-05 0)
(1.03255 3.44646e-05 0)
(1.03255 3.44478e-05 0)
(1.03255 3.45063e-05 0)
(1.03255 3.45091e-05 0)
(1.03255 3.45932e-05 0)
(1.03255 3.46437e-05 0)
(1.03255 3.47679e-05 0)
(1.03255 3.49194e-05 0)
(1.03255 3.51598e-05 0)
(1.03255 3.54692e-05 0)
(1.03254 3.59396e-05 0)
(1.03254 3.65472e-05 0)
(1.03254 3.7457e-05 0)
(1.03254 3.86506e-05 0)
(1.03253 4.03324e-05 0)
(1.03253 4.24435e-05 0)
(1.03252 4.52679e-05 0)
(1.03251 4.8166e-05 0)
(1.03249 5.31869e-05 0)
(1.03246 6.22919e-05 0)
(1.03242 0.000123538 0)
(1.03218 0.00034916 0)
(1.03186 0.00116812 0)
(1.02902 0.00229697 0)
(0.986395 0.0983027 0)
(1.06822 0.0321957 0)
(1.02897 0.00652303 0)
(1.04243 0.000501969 0)
(1.0368 -0.000473121 0)
(1.03922 0.000275949 0)
(1.03809 0.000379677 0)
(1.0383 0.000479346 0)
(1.03792 0.00040362 0)
(1.03782 0.00035271 0)
(1.03764 0.000288328 0)
(1.03753 0.000241281 0)
(1.03743 0.000199986 0)
(1.03734 0.00016765 0)
(1.03727 0.000141154 0)
(1.03721 0.000119906 0)
(1.03716 0.000102314 0)
(1.03712 8.79485e-05 0)
(1.03708 7.58048e-05 0)
(1.03704 6.55372e-05 0)
(1.03701 5.68415e-05 0)
(1.03699 4.91798e-05 0)
(1.03697 4.26766e-05 0)
(1.03695 3.68367e-05 0)
(1.03693 3.18138e-05 0)
(1.03691 2.73371e-05 0)
(1.0369 2.32892e-05 0)
(1.03689 1.99118e-05 0)
(1.03688 1.70663e-05 0)
(1.03687 1.45816e-05 0)
(1.03686 1.26015e-05 0)
(1.03686 1.05962e-05 0)
(1.03685 9.11681e-06 0)
(1.03685 7.67523e-06 0)
(1.03684 6.55412e-06 0)
(1.03684 5.61832e-06 0)
(1.03684 4.70683e-06 0)
(1.03684 4.10658e-06 0)
(1.03683 3.53119e-06 0)
(1.03683 2.92607e-06 0)
(1.03683 2.62631e-06 0)
(1.03683 2.11567e-06 0)
(1.03683 1.88562e-06 0)
(1.03683 1.59931e-06 0)
(1.03683 1.45686e-06 0)
(1.03683 1.33087e-06 0)
(1.03683 1.14339e-06 0)
(1.03683 1.0412e-06 0)
(1.03682 9.78089e-07 0)
(1.03682 8.20527e-07 0)
(1.03682 8.75243e-07 0)
(1.03682 7.45777e-07 0)
(1.03682 7.86767e-07 0)
(1.03682 7.3428e-07 0)
(1.03682 7.26032e-07 0)
(1.03682 7.21605e-07 0)
(1.03682 7.16534e-07 0)
(1.03682 6.71224e-07 0)
(1.03682 7.05054e-07 0)
(1.03682 6.1089e-07 0)
(1.03682 6.68487e-07 0)
(1.03682 5.96673e-07 0)
(1.03682 6.31862e-07 0)
(1.03682 6.12832e-07 0)
(1.03682 6.17933e-07 0)
(1.03682 6.04011e-07 0)
(1.03682 6.25126e-07 0)
(1.03682 5.82498e-07 0)
(1.03682 6.39814e-07 0)
(1.03682 5.9492e-07 0)
(1.03682 6.58081e-07 0)
(1.03682 6.20674e-07 0)
(1.03682 6.42606e-07 0)
(1.03682 6.23188e-07 0)
(1.03682 6.31201e-07 0)
(1.03682 6.15795e-07 0)
(1.03682 6.49783e-07 0)
(1.03682 6.30984e-07 0)
(1.03682 6.96301e-07 0)
(1.03682 7.00254e-07 0)
(1.03682 7.96469e-07 0)
(1.03682 8.60134e-07 0)
(1.03682 1.00527e-06 0)
(1.03682 1.18568e-06 0)
(1.03682 1.46831e-06 0)
(1.03682 1.83632e-06 0)
(1.03682 2.41991e-06 0)
(1.03682 3.16393e-06 0)
(1.03682 4.25162e-06 0)
(1.03682 5.6705e-06 0)
(1.03681 7.6691e-06 0)
(1.03681 1.02182e-05 0)
(1.0368 1.37756e-05 0)
(1.03679 1.77884e-05 0)
(1.03678 2.54962e-05 0)
(1.03674 3.93012e-05 0)
(1.0367 0.000119282 0)
(1.03647 0.000383836 0)
(1.03621 0.00139848 0)
(1.03382 0.00284677 0)
(0.983101 0.0876986 0)
(1.0661 0.0325087 0)
(1.02959 0.00711459 0)
(1.04347 0.000478638 0)
(1.03762 -0.000485824 0)
(1.04015 0.00028156 0)
(1.03903 0.000415192 0)
(1.03933 0.000518619 0)
(1.03901 0.00044019 0)
(1.03897 0.000384229 0)
(1.03883 0.000314927 0)
(1.03876 0.000263638 0)
(1.03869 0.000218843 0)
(1.03863 0.000183718 0)
(1.03858 0.000154896 0)
(1.03854 0.000131744 0)
(1.0385 0.000112579 0)
(1.03847 9.69549e-05 0)
(1.03844 8.37739e-05 0)
(1.03842 7.2638e-05 0)
(1.03839 6.3217e-05 0)
(1.03838 5.49667e-05 0)
(1.03836 4.79957e-05 0)
(1.03834 4.17425e-05 0)
(1.03833 3.64002e-05 0)
(1.03832 3.16761e-05 0)
(1.03831 2.7428e-05 0)
(1.0383 2.39308e-05 0)
(1.03829 2.08027e-05 0)
(1.03829 1.80261e-05 0)
(1.03828 1.58043e-05 0)
(1.03828 1.35765e-05 0)
(1.03827 1.19133e-05 0)
(1.03827 1.02848e-05 0)
(1.03827 8.99556e-06 0)
(1.03826 7.93461e-06 0)
(1.03826 6.88768e-06 0)
(1.03826 6.17657e-06 0)
(1.03826 5.50854e-06 0)
(1.03826 4.79858e-06 0)
(1.03825 4.41848e-06 0)
(1.03825 3.82486e-06 0)
(1.03825 3.5574e-06 0)
(1.03825 3.23322e-06 0)
(1.03825 3.05891e-06 0)
(1.03825 2.91588e-06 0)
(1.03825 2.69623e-06 0)
(1.03825 2.57093e-06 0)
(1.03825 2.5043e-06 0)
(1.03825 2.32941e-06 0)
(1.03825 2.38527e-06 0)
(1.03825 2.2484e-06 0)
(1.03825 2.28573e-06 0)
(1.03825 2.23228e-06 0)
(1.03825 2.21966e-06 0)
(1.03825 2.2169e-06 0)
(1.03825 2.21069e-06 0)
(1.03825 2.15801e-06 0)
(1.03825 2.19255e-06 0)
(1.03825 2.08797e-06 0)
(1.03825 2.14653e-06 0)
(1.03825 2.06989e-06 0)
(1.03825 2.10287e-06 0)
(1.03825 2.08506e-06 0)
(1.03825 2.08915e-06 0)
(1.03825 2.07378e-06 0)
(1.03825 2.09566e-06 0)
(1.03825 2.0501e-06 0)
(1.03825 2.11363e-06 0)
(1.03825 2.06839e-06 0)
(1.03825 2.13608e-06 0)
(1.03825 2.09852e-06 0)
(1.03825 2.11932e-06 0)
(1.03825 2.09924e-06 0)
(1.03825 2.1073e-06 0)
(1.03825 2.09158e-06 0)
(1.03825 2.12819e-06 0)
(1.03825 2.10716e-06 0)
(1.03825 2.17678e-06 0)
(1.03825 2.18258e-06 0)
(1.03825 2.28765e-06 0)
(1.03825 2.36244e-06 0)
(1.03825 2.52235e-06 0)
(1.03825 2.72552e-06 0)
(1.03825 3.04069e-06 0)
(1.03825 3.45492e-06 0)
(1.03825 4.11516e-06 0)
(1.03825 4.99087e-06 0)
(1.03824 6.23845e-06 0)
(1.03824 7.85102e-06 0)
(1.03824 1.01175e-05 0)
(1.03824 1.30495e-05 0)
(1.03823 1.72935e-05 0)
(1.03822 2.24251e-05 0)
(1.03821 3.26244e-05 0)
(1.03818 5.06417e-05 0)
(1.03814 0.000147026 0)
(1.03794 0.000446081 0)
(1.03774 0.00162564 0)
(1.03587 0.00331287 0)
(0.980017 0.0779936 0)
(1.06349 0.0320558 0)
(1.02937 0.00745894 0)
(1.04355 0.000443323 0)
(1.03755 -0.000489764 0)
(1.04016 0.000277431 0)
(1.03904 0.000437634 0)
(1.03943 0.000542643 0)
(1.03916 0.00046379 0)
(1.03918 0.000404545 0)
(1.03908 0.000332235 0)
(1.03905 0.000278043 0)
(1.039 0.000230797 0)
(1.03897 0.000193618 0)
(1.03894 0.00016326 0)
(1.03891 0.000138884 0)
(1.03889 0.0001187 0)
(1.03887 0.000102263 0)
(1.03885 8.83956e-05 0)
(1.03884 7.66753e-05 0)
(1.03882 6.67567e-05 0)
(1.03881 5.80848e-05 0)
(1.0388 5.07618e-05 0)
(1.03879 4.41627e-05 0)
(1.03878 3.85268e-05 0)
(1.03877 3.35581e-05 0)
(1.03877 2.90691e-05 0)
(1.03876 2.53808e-05 0)
(1.03876 2.20542e-05 0)
(1.03875 1.90721e-05 0)
(1.03875 1.66801e-05 0)
(1.03874 1.43036e-05 0)
(1.03874 1.25157e-05 0)
(1.03874 1.07627e-05 0)
(1.03874 9.36049e-06 0)
(1.03873 8.22323e-06 0)
(1.03873 7.09139e-06 0)
(1.03873 6.30575e-06 0)
(1.03873 5.59115e-06 0)
(1.03873 4.8305e-06 0)
(1.03873 4.4092e-06 0)
(1.03873 3.78388e-06 0)
(1.03873 3.49371e-06 0)
(1.03873 3.13056e-06 0)
(1.03873 2.91025e-06 0)
(1.03873 2.75326e-06 0)
(1.03872 2.50837e-06 0)
(1.03872 2.36023e-06 0)
(1.03872 2.29267e-06 0)
(1.03872 2.10377e-06 0)
(1.03872 2.15846e-06 0)
(1.03872 2.01663e-06 0)
(1.03872 2.04791e-06 0)
(1.03872 1.99538e-06 0)
(1.03872 1.98013e-06 0)
(1.03872 1.97949e-06 0)
(1.03872 1.97239e-06 0)
(1.03872 1.91179e-06 0)
(1.03872 1.94604e-06 0)
(1.03872 1.83366e-06 0)
(1.03872 1.89156e-06 0)
(1.03872 1.81235e-06 0)
(1.03872 1.8421e-06 0)
(1.03872 1.82612e-06 0)
(1.03872 1.82907e-06 0)
(1.03872 1.81178e-06 0)
(1.03872 1.83406e-06 0)
(1.03872 1.78686e-06 0)
(1.03872 1.85598e-06 0)
(1.03872 1.8121e-06 0)
(1.03872 1.88233e-06 0)
(1.03872 1.84517e-06 0)
(1.03872 1.86441e-06 0)
(1.03872 1.84464e-06 0)
(1.03872 1.85274e-06 0)
(1.03872 1.83637e-06 0)
(1.03872 1.87423e-06 0)
(1.03872 1.85065e-06 0)
(1.03872 1.92272e-06 0)
(1.03872 1.93051e-06 0)
(1.03872 2.0411e-06 0)
(1.03872 2.12478e-06 0)
(1.03872 2.29642e-06 0)
(1.03872 2.5176e-06 0)
(1.03872 2.85773e-06 0)
(1.03872 3.32432e-06 0)
(1.03872 4.0219e-06 0)
(1.03872 4.94816e-06 0)
(1.03872 6.27194e-06 0)
(1.03872 7.9952e-06 0)
(1.03872 1.04396e-05 0)
(1.03872 1.36627e-05 0)
(1.03871 1.84958e-05 0)
(1.0387 2.46817e-05 0)
(1.03869 3.74972e-05 0)
(1.03867 5.98062e-05 0)
(1.03863 0.000170597 0)
(1.03847 0.000495984 0)
(1.03834 0.00179842 0)
(1.03701 0.00365049 0)
(0.977433 0.0691528 0)
(1.06097 0.0309981 0)
(1.02893 0.00758119 0)
(1.04334 0.000399245 0)
(1.03721 -0.000488683 0)
(1.03989 0.000263955 0)
(1.03878 0.000445859 0)
(1.03924 0.000550306 0)
(1.03901 0.000473097 0)
(1.03908 0.000412409 0)
(1.03903 0.000339178 0)
(1.03902 0.000283716 0)
(1.039 0.000235455 0)
(1.03899 0.000197365 0)
(1.03898 0.000166326 0)
(1.03897 0.000141391 0)
(1.03896 0.000120737 0)
(1.03896 0.00010394 0)
(1.03895 8.97548e-05 0)
(1.03894 7.77609e-05 0)
(1.03894 6.76069e-05 0)
(1.03893 5.87183e-05 0)
(1.03892 5.12109e-05 0)
(1.03892 4.44084e-05 0)
(1.03892 3.85947e-05 0)
(1.03891 3.34858e-05 0)
(1.03891 2.88361e-05 0)
(1.03891 2.50071e-05 0)
(1.0389 2.15721e-05 0)
(1.0389 1.84684e-05 0)
(1.0389 1.59775e-05 0)
(1.0389 1.3523e-05 0)
(1.03889 1.16703e-05 0)
(1.03889 9.85377e-06 0)
(1.03889 8.39048e-06 0)
(1.03889 7.22006e-06 0)
(1.03889 6.04841e-06 0)
(1.03889 5.22196e-06 0)
(1.03889 4.5008e-06 0)
(1.03889 3.73422e-06 0)
(1.03888 3.30552e-06 0)
(1.03888 2.68444e-06 0)
(1.03888 2.37687e-06 0)
(1.03888 1.99205e-06 0)
(1.03888 1.74446e-06 0)
(1.03888 1.57774e-06 0)
(1.03888 1.31396e-06 0)
(1.03888 1.14239e-06 0)
(1.03888 1.07449e-06 0)
(1.03888 8.71397e-07 0)
(1.03888 9.22185e-07 0)
(1.03888 7.71749e-07 0)
(1.03888 7.95562e-07 0)
(1.03888 7.45217e-07 0)
(1.03888 7.29083e-07 0)
(1.03888 7.29384e-07 0)
(1.03888 7.21292e-07 0)
(1.03888 6.5161e-07 0)
(1.03888 6.86077e-07 0)
(1.03888 5.68255e-07 0)
(1.03888 6.25214e-07 0)
(1.03888 5.44854e-07 0)
(1.03888 5.71832e-07 0)
(1.03888 5.57773e-07 0)
(1.03888 5.60041e-07 0)
(1.03888 5.40217e-07 0)
(1.03888 5.63498e-07 0)
(1.03888 5.15612e-07 0)
(1.03888 5.90055e-07 0)
(1.03888 5.47683e-07 0)
(1.03888 6.18786e-07 0)
(1.03888 5.81722e-07 0)
(1.03888 5.99484e-07 0)
(1.03888 5.80221e-07 0)
(1.03888 5.88399e-07 0)
(1.03888 5.70143e-07 0)
(1.03888 6.08536e-07 0)
(1.03888 5.82078e-07 0)
(1.03888 6.55671e-07 0)
(1.03888 6.64715e-07 0)
(1.03888 7.77571e-07 0)
(1.03888 8.74131e-07 0)
(1.03888 1.05963e-06 0)
(1.03888 1.29734e-06 0)
(1.03888 1.656e-06 0)
(1.03888 2.14326e-06 0)
(1.03888 2.85472e-06 0)
(1.03888 3.76493e-06 0)
(1.03888 5.09384e-06 0)
(1.03888 6.85386e-06 0)
(1.03888 9.39161e-06 0)
(1.03888 1.28112e-05 0)
(1.03887 1.81121e-05 0)
(1.03887 2.52167e-05 0)
(1.03886 4.04081e-05 0)
(1.03884 6.64987e-05 0)
(1.03881 0.000188497 0)
(1.03869 0.00053027 0)
(1.03863 0.00191142 0)
(1.03784 0.00385964 0)
(0.975339 0.0610794 0)
(1.0587 0.0294626 0)
(1.02847 0.00751012 0)
(1.04304 0.00035283 0)
(1.03682 -0.000480933 0)
(1.03954 0.000244976 0)
(1.03844 0.000442737 0)
(1.03896 0.000544755 0)
(1.03878 0.000470848 0)
(1.0389 0.000410385 0)
(1.03888 0.000338094 0)
(1.03891 0.000282853 0)
(1.03891 0.000234873 0)
(1.03892 0.000196897 0)
(1.03893 0.000165966 0)
(1.03893 0.000141107 0)
(1.03894 0.000120509 0)
(1.03894 0.000103782 0)
(1.03894 8.96397e-05 0)
(1.03894 7.76788e-05 0)
(1.03894 6.7553e-05 0)
(1.03894 5.86606e-05 0)
(1.03894 5.11573e-05 0)
(1.03894 4.43297e-05 0)
(1.03894 3.8491e-05 0)
(1.03894 3.3383e-05 0)
(1.03894 2.87002e-05 0)
(1.03894 2.48302e-05 0)
(1.03894 2.13721e-05 0)
(1.03894 1.82236e-05 0)
(1.03894 1.56972e-05 0)
(1.03894 1.32229e-05 0)
(1.03894 1.13541e-05 0)
(1.03894 9.51911e-06 0)
(1.03894 8.02769e-06 0)
(1.03894 6.8476e-06 0)
(1.03894 5.65694e-06 0)
(1.03894 4.80226e-06 0)
(1.03894 4.08392e-06 0)
(1.03894 3.31837e-06 0)
(1.03894 2.88443e-06 0)
(1.03894 2.26665e-06 0)
(1.03894 1.96008e-06 0)
(1.03894 1.57942e-06 0)
(1.03894 1.32915e-06 0)
(1.03894 1.15961e-06 0)
(1.03894 8.90132e-07 0)
(1.03894 6.99316e-07 0)
(1.03894 6.3695e-07 0)
(1.03894 4.29531e-07 0)
(1.03894 4.77221e-07 0)
(1.03893 3.24297e-07 0)
(1.03893 3.40857e-07 0)
(1.03893 2.93488e-07 0)
(1.03893 2.77193e-07 0)
(1.03893 2.76617e-07 0)
(1.03893 2.67448e-07 0)
(1.03893 1.88386e-07 0)
(1.03893 2.2444e-07 0)
(1.03893 1.02031e-07 0)
(1.03893 1.58696e-07 0)
(1.03893 7.77129e-08 0)
(1.03893 1.027e-07 0)
(1.03893 9.13241e-08 0)
(1.03893 9.26537e-08 0)
(1.03893 6.98906e-08 0)
(1.03893 9.50032e-08 0)
(1.03893 4.70439e-08 0)
(1.03893 1.26643e-07 0)
(1.03893 8.46296e-08 0)
(1.03893 1.5523e-07 0)
(1.03893 1.1781e-07 0)
(1.03893 1.34219e-07 0)
(1.03893 1.1628e-07 0)
(1.03893 1.23822e-07 0)
(1.03893 1.03304e-07 0)
(1.03893 1.42164e-07 0)
(1.03893 1.12971e-07 0)
(1.03893 1.87684e-07 0)
(1.03893 1.96641e-07 0)
(1.03893 3.08975e-07 0)
(1.03893 4.09511e-07 0)
(1.03893 5.99849e-07 0)
(1.03893 8.4267e-07 0)
(1.03893 1.20696e-06 0)
(1.03893 1.67368e-06 0)
(1.03893 2.36894e-06 0)
(1.03893 3.26473e-06 0)
(1.03893 4.58822e-06 0)
(1.03893 6.35783e-06 0)
(1.03893 8.93943e-06 0)
(1.03893 1.24803e-05 0)
(1.03893 1.81233e-05 0)
(1.03893 2.59596e-05 0)
(1.03892 4.30569e-05 0)
(1.03891 7.20548e-05 0)
(1.03889 0.000201425 0)
(1.03882 0.000549916 0)
(1.03882 0.0019669 0)
(1.03856 0.00394855 0)
(0.973658 0.0536528 0)
(1.05672 0.0275427 0)
(1.02804 0.00726967 0)
(1.04273 0.000307149 0)
(1.03644 -0.000466174 0)
(1.03919 0.00022236 0)
(1.0381 0.000429481 0)
(1.03868 0.000527424 0)
(1.03854 0.000458116 0)
(1.03869 0.000399347 0)
(1.0387 0.000329602 0)
(1.03876 0.000275882 0)
(1.03879 0.000229292 0)
(1.03882 0.00019231 0)
(1.03884 0.000162191 0)
(1.03886 0.000137993 0)
(1.03888 0.000117934 0)
(1.03889 0.000101665 0)
(1.0389 8.78898e-05 0)
(1.03891 7.62391e-05 0)
(1.03892 6.638e-05 0)
(1.03892 5.76806e-05 0)
(1.03893 5.03583e-05 0)
(1.03893 4.36758e-05 0)
(1.03894 3.79516e-05 0)
(1.03894 3.29685e-05 0)
(1.03894 2.83689e-05 0)
(1.03894 2.45502e-05 0)
(1.03895 2.11517e-05 0)
(1.03895 1.80351e-05 0)
(1.03895 1.55362e-05 0)
(1.03895 1.3097e-05 0)
(1.03895 1.1259e-05 0)
(1.03895 9.44895e-06 0)
(1.03895 7.961e-06 0)
(1.03895 6.79449e-06 0)
(1.03895 5.60906e-06 0)
(1.03895 4.74221e-06 0)
(1.03895 4.03815e-06 0)
(1.03895 3.28128e-06 0)
(1.03895 2.84515e-06 0)
(1.03895 2.2259e-06 0)
(1.03895 1.91845e-06 0)
(1.03895 1.53888e-06 0)
(1.03895 1.27827e-06 0)
(1.03895 1.11121e-06 0)
(1.03895 8.49223e-07 0)
(1.03895 6.44848e-07 0)
(1.03895 5.93829e-07 0)
(1.03895 3.92036e-07 0)
(1.03895 4.37408e-07 0)
(1.03895 2.8906e-07 0)
(1.03895 2.99954e-07 0)
(1.03895 2.56113e-07 0)
(1.03895 2.40282e-07 0)
(1.03895 2.37381e-07 0)
(1.03895 2.2857e-07 0)
(1.03895 1.41727e-07 0)
(1.03895 1.81032e-07 0)
(1.03895 5.73194e-08 0)
(1.03895 1.13053e-07 0)
(1.03895 3.307e-08 0)
(1.03895 5.61592e-08 0)
(1.03895 4.64033e-08 0)
(1.03895 4.77763e-08 0)
(1.03895 2.24128e-08 0)
(1.03895 4.97516e-08 0)
(1.03895 2.13385e-09 0)
(1.03895 8.57099e-08 0)
(1.03895 4.35309e-08 0)
(1.03895 1.12706e-07 0)
(1.03895 7.49003e-08 0)
(1.03895 8.99855e-08 0)
(1.03895 7.26358e-08 0)
(1.03895 8.02889e-08 0)
(1.03895 5.5731e-08 0)
(1.03895 9.44746e-08 0)
(1.03895 6.23552e-08 0)
(1.03895 1.36791e-07 0)
(1.03895 1.43792e-07 0)
(1.03895 2.53505e-07 0)
(1.03895 3.48047e-07 0)
(1.03895 5.32222e-07 0)
(1.03895 7.68589e-07 0)
(1.03895 1.1274e-06 0)
(1.03895 1.58164e-06 0)
(1.03895 2.26414e-06 0)
(1.03895 3.14636e-06 0)
(1.03895 4.45289e-06 0)
(1.03895 6.20441e-06 0)
(1.03895 8.77906e-06 0)
(1.03895 1.236e-05 0)
(1.03895 1.81979e-05 0)
(1.03895 2.65297e-05 0)
(1.03895 4.49449e-05 0)
(1.03895 7.58233e-05 0)
(1.03893 0.000208521 0)
(1.03892 0.000554617 0)
(1.03898 0.00196673 0)
(1.03921 0.00392522 0)
(0.972311 0.0467659 0)
(1.055 0.0253114 0)
(1.02768 0.00688066 0)
(1.04245 0.000263629 0)
(1.0361 -0.00044431 0)
(1.03886 0.000197423 0)
(1.03778 0.000407026 0)
(1.03841 0.000499379 0)
(1.03831 0.000435677 0)
(1.0385 0.000379897 0)
(1.03854 0.000314086 0)
(1.03862 0.000263032 0)
(1.03867 0.000218808 0)
(1.03872 0.000183604 0)
(1.03875 0.000154938 0)
(1.03878 0.00013193 0)
(1.03881 0.000112838 0)
(1.03883 9.73681e-05 0)
(1.03885 8.42522e-05 0)
(1.03887 7.31596e-05 0)
(1.03888 6.37809e-05 0)
(1.03889 5.54559e-05 0)
(1.0389 4.84753e-05 0)
(1.03891 4.20918e-05 0)
(1.03892 3.66044e-05 0)
(1.03893 3.18518e-05 0)
(1.03893 2.74402e-05 0)
(1.03894 2.37574e-05 0)
(1.03894 2.0497e-05 0)
(1.03894 1.74883e-05 0)
(1.03895 1.50787e-05 0)
(1.03895 1.27284e-05 0)
(1.03895 1.09668e-05 0)
(1.03895 9.22605e-06 0)
(1.03895 7.7766e-06 0)
(1.03895 6.6516e-06 0)
(1.03895 5.50366e-06 0)
(1.03896 4.6486e-06 0)
(1.03896 3.97719e-06 0)
(1.03896 3.24511e-06 0)
(1.03896 2.8182e-06 0)
(1.03896 2.20566e-06 0)
(1.03896 1.9026e-06 0)
(1.03896 1.52944e-06 0)
(1.03896 1.26009e-06 0)
(1.03896 1.09811e-06 0)
(1.03896 8.49471e-07 0)
(1.03896 6.34247e-07 0)
(1.03896 5.93758e-07 0)
(1.03896 3.96367e-07 0)
(1.03896 4.37858e-07 0)
(1.03896 2.91175e-07 0)
(1.03896 2.98306e-07 0)
(1.03896 2.58789e-07 0)
(1.03896 2.44199e-07 0)
(1.03896 2.38734e-07 0)
(1.03896 2.32657e-07 0)
(1.03896 1.40499e-07 0)
(1.03896 1.83976e-07 0)
(1.03896 6.21867e-08 0)
(1.03896 1.15904e-07 0)
(1.03896 3.82546e-08 0)
(1.03896 5.91668e-08 0)
(1.03896 4.96437e-08 0)
(1.03896 5.2318e-08 0)
(1.03896 2.43741e-08 0)
(1.03896 5.44005e-08 0)
(1.03896 7.35047e-09 0)
(1.03896 9.33467e-08 0)
(1.03896 5.10185e-08 0)
(1.03896 1.18223e-07 0)
(1.03896 8.05351e-08 0)
(1.03896 9.45805e-08 0)
(1.03896 7.6741e-08 0)
(1.03896 8.54454e-08 0)
(1.03896 5.54824e-08 0)
(1.03896 9.32262e-08 0)
(1.03896 5.80198e-08 0)
(1.03896 1.30042e-07 0)
(1.03896 1.33466e-07 0)
(1.03896 2.38809e-07 0)
(1.03896 3.30247e-07 0)
(1.03896 5.08908e-07 0)
(1.03896 7.38055e-07 0)
(1.03896 1.08692e-06 0)
(1.03896 1.52544e-06 0)
(1.03896 2.18616e-06 0)
(1.03896 3.03659e-06 0)
(1.03896 4.29872e-06 0)
(1.03896 5.99265e-06 0)
(1.03896 8.49964e-06 0)
(1.03896 1.20285e-05 0)
(1.03896 1.78934e-05 0)
(1.03897 2.64455e-05 0)
(1.03897 4.55142e-05 0)
(1.03897 7.71668e-05 0)
(1.03896 0.000209114 0)
(1.03901 0.000544208 0)
(1.03912 0.0019135 0)
(1.03982 0.00379827 0)
(0.971232 0.0403294 0)
(1.05354 0.0228276 0)
(1.02736 0.00636217 0)
(1.0422 0.000223043 0)
(1.03581 -0.000415119 0)
(1.03857 0.000171417 0)
(1.03749 0.00037652 0)
(1.03817 0.000461869 0)